; Merz ion Lennard-Jones parameter reference library
; Generated from user-provided primary literature PDFs.
; Only elemental metal ions are included; molecular ions and halide anions are excluded.
; Source AMBER-style Rmin/2 (Angstrom) and epsilon (kcal/mol) were converted to
; GROMACS combination-rule-2 [ atomtypes ] sigma (nm) and epsilon (kJ/mol):
; sigma = 2*(Rmin/2)/2^(1/6)*0.1 ; epsilon = epsilon_kcal*4.184
; The atomtype names are unique library identifiers; select only parameters compatible with
; the intended ion oxidation state, parameter set, and water model.
;
; References
; ref1: Li, P.; Roberts, B. P.; Chakravorty, D. K.; Merz, K. M., Jr. J. Chem. Theory Comput. 2013, 9, 2733-2748. DOI: 10.1021/ct400146w
; ref3: Li, P.; Song, L. F.; Merz, K. M., Jr. J. Phys. Chem. B 2015, 119, 883-895. DOI: 10.1021/jp505875v
; ref4: Li, P.; Song, L. F.; Merz, K. M., Jr. J. Chem. Theory Comput. 2015, 11, 1645-1657. DOI: 10.1021/ct500918t
; ref5: Li, Z.; Song, L. F.; Li, P.; Merz, K. M., Jr. J. Chem. Theory Comput. 2020. DOI: 10.1021/acs.jctc.0c00194
; ref6: Li, Z.; Song, L. F.; Li, P.; Merz, K. M., Jr. J. Chem. Theory Comput. 2021, 17, 2342-2354. DOI: 10.1021/acs.jctc.0c01320
; ref7: Sengupta, A.; Li, Z.; Song, L. F.; Li, P.; Merz, K. M., Jr. J. Chem. Inf. Model. 2021, 61, 869-880. DOI: 10.1021/acs.jcim.0c01390
;
[ atomtypes ]
; name                               at.num       mass    charge ptype      sigma(nm)      epsilon(kJ/mol) ; set | water model | source
; --- ref1 ---
MERZ_Be2plus_HFE_TIP3P                 4     9.01218  0.0000  A  1.61609027e-01  3.34720000e-06 ; HFE | TIP3P | ref1
MERZ_Be2plus_HFE_SPCE                  4     9.01218  0.0000  A  1.63034465e-01  4.39320000e-06 ; HFE | SPC/E | ref1
MERZ_Be2plus_HFE_TIP4PEW               4     9.01218  0.0000  A  1.45216491e-01  9.24664000e-08 ; HFE | TIP4PEW | ref1
MERZ_Cu2plus_HFE_TIP3P                29    63.54600  0.0000  A  2.03837627e-01  1.68209352e-03 ; HFE | TIP3P | ref1
MERZ_Cu2plus_HFE_SPCE                 29    63.54600  0.0000  A  2.04728525e-01  1.85158736e-03 ; HFE | SPC/E | ref1
MERZ_Cu2plus_HFE_TIP4PEW              29    63.54600  0.0000  A  1.92077764e-01  4.21035920e-04 ; HFE | TIP4PEW | ref1
MERZ_Ni2plus_HFE_TIP3P                28    58.69340  0.0000  A  2.07044862e-01  2.36358344e-03 ; HFE | TIP3P | ref1
MERZ_Ni2plus_HFE_SPCE                 28    58.69340  0.0000  A  2.07757581e-01  2.54399752e-03 ; HFE | SPC/E | ref1
MERZ_Ni2plus_HFE_TIP4PEW              28    58.69340  0.0000  A  1.96175898e-01  7.00108720e-04 ; HFE | TIP4PEW | ref1
MERZ_Pt2plus_HFE_TIP3P                78   195.08400  0.0000  A  2.09004839e-01  2.88846624e-03 ; HFE | TIP3P | ref1
MERZ_Pt2plus_HFE_SPCE                 78   195.08400  0.0000  A  2.09539379e-01  3.04800216e-03 ; HFE | SPC/E | ref1
MERZ_Pt2plus_HFE_TIP4PEW              78   195.08400  0.0000  A  1.98492234e-01  9.21609680e-04 ; HFE | TIP4PEW | ref1
MERZ_Zn2plus_HFE_TIP3P                30    65.38000  0.0000  A  2.09361199e-01  2.99398672e-03 ; HFE | TIP3P | ref1
MERZ_Zn2plus_HFE_SPCE                 30    65.38000  0.0000  A  2.09895738e-01  3.15850160e-03 ; HFE | SPC/E | ref1
MERZ_Zn2plus_HFE_TIP4PEW              30    65.38000  0.0000  A  1.98670414e-01  9.40981600e-04 ; HFE | TIP4PEW | ref1
MERZ_Co2plus_HFE_TIP3P                27    58.93319  0.0000  A  2.15775670e-01  5.54580832e-03 ; HFE | TIP3P | ref1
MERZ_Co2plus_HFE_SPCE                 27    58.93319  0.0000  A  2.16844748e-01  6.11382816e-03 ; HFE | SPC/E | ref1
MERZ_Co2plus_HFE_TIP4PEW              27    58.93319  0.0000  A  2.03303087e-01  1.58703304e-03 ; HFE | TIP4PEW | ref1
MERZ_Pd2plus_HFE_TIP3P                46   106.42000  0.0000  A  2.16488389e-01  5.91923032e-03 ; HFE | TIP3P | ref1
MERZ_Pd2plus_HFE_SPCE                 46   106.42000  0.0000  A  2.16844748e-01  6.11382816e-03 ; HFE | SPC/E | ref1
MERZ_Pd2plus_HFE_TIP4PEW              46   106.42000  0.0000  A  2.04015806e-01  1.71485424e-03 ; HFE | TIP4PEW | ref1
MERZ_Ag2plus_HFE_TIP3P                47   107.86820  0.0000  A  2.25041016e-01  1.23295367e-02 ; HFE | TIP3P | ref1
MERZ_Ag2plus_HFE_SPCE                 47   107.86820  0.0000  A  2.25397376e-01  1.26888586e-02 ; HFE | SPC/E | ref1
MERZ_Ag2plus_HFE_TIP4PEW              47   107.86820  0.0000  A  2.08648480e-01  2.78616744e-03 ; HFE | TIP4PEW | ref1
MERZ_Cr2plus_HFE_TIP3P                24    51.99610  0.0000  A  2.26822814e-01  1.42138848e-02 ; HFE | TIP3P | ref1
MERZ_Cr2plus_HFE_SPCE                 24    51.99610  0.0000  A  2.27357353e-01  1.48233681e-02 ; HFE | SPC/E | ref1
MERZ_Cr2plus_HFE_TIP4PEW              24    51.99610  0.0000  A  2.10430277e-01  3.33071504e-03 ; HFE | TIP4PEW | ref1
MERZ_Fe2plus_HFE_TIP3P                26    55.84500  0.0000  A  2.27535533e-01  1.50312292e-02 ; HFE | TIP3P | ref1
MERZ_Fe2plus_HFE_SPCE                 26    55.84500  0.0000  A  2.28782791e-01  1.65544981e-02 ; HFE | SPC/E | ref1
MERZ_Fe2plus_HFE_TIP4PEW              26    55.84500  0.0000  A  2.12746614e-01  4.17358184e-03 ; HFE | TIP4PEW | ref1
MERZ_Mg2plus_HFE_TIP3P                12    24.30500  0.0000  A  2.28782791e-01  1.65544981e-02 ; HFE | TIP3P | ref1
MERZ_Mg2plus_HFE_SPCE                 12    24.30500  0.0000  A  2.29495510e-01  1.74802081e-02 ; HFE | SPC/E | ref1
MERZ_Mg2plus_HFE_TIP4PEW              12    24.30500  0.0000  A  2.15241130e-01  5.27903648e-03 ; HFE | TIP4PEW | ref1
MERZ_V2plus_HFE_TIP3P                 23    50.94150  0.0000  A  2.29851869e-01  1.79586903e-02 ; HFE | TIP3P | ref1
MERZ_V2plus_HFE_SPCE                  23    50.94150  0.0000  A  2.30386409e-01  1.86964550e-02 ; HFE | SPC/E | ref1
MERZ_V2plus_HFE_TIP4PEW               23    50.94150  0.0000  A  2.15597490e-01  5.45564312e-03 ; HFE | TIP4PEW | ref1
MERZ_Mn2plus_HFE_TIP3P                25    54.93804  0.0000  A  2.38582677e-01  3.34375238e-02 ; HFE | TIP3P | ref1
MERZ_Mn2plus_HFE_SPCE                 25    54.93804  0.0000  A  2.38404497e-01  3.30403786e-02 ; HFE | SPC/E | ref1
MERZ_Mn2plus_HFE_TIP4PEW              25    54.93804  0.0000  A  2.27357353e-01  1.48233681e-02 ; HFE | TIP4PEW | ref1
MERZ_Hg2plus_HFE_TIP3P                80   200.59200  0.0000  A  2.38582677e-01  3.34375238e-02 ; HFE | TIP3P | ref1
MERZ_Hg2plus_HFE_SPCE                 80   200.59200  0.0000  A  2.38404497e-01  3.30403786e-02 ; HFE | SPC/E | ref1
MERZ_Hg2plus_HFE_TIP4PEW              80   200.59200  0.0000  A  2.27357353e-01  1.48233681e-02 ; HFE | TIP4PEW | ref1
MERZ_Cd2plus_HFE_TIP3P                48   112.41400  0.0000  A  2.38582677e-01  3.34375238e-02 ; HFE | TIP3P | ref1
MERZ_Cd2plus_HFE_SPCE                 48   112.41400  0.0000  A  2.39473575e-01  3.54803200e-02 ; HFE | SPC/E | ref1
MERZ_Cd2plus_HFE_TIP4PEW              48   112.41400  0.0000  A  2.27891892e-01  1.54541898e-02 ; HFE | TIP4PEW | ref1
MERZ_Yb2plus_HFE_TIP3P                70   173.04500  0.0000  A  2.71902289e-01  1.99669350e-01 ; HFE | TIP3P | ref1
MERZ_Yb2plus_HFE_SPCE                 70   173.04500  0.0000  A  2.70476851e-01  1.87902436e-01 ; HFE | SPC/E | ref1
MERZ_Yb2plus_HFE_TIP4PEW              70   173.04500  0.0000  A  2.60855145e-01  1.20658987e-01 ; HFE | TIP4PEW | ref1
MERZ_Ca2plus_HFE_TIP3P                20    40.07800  0.0000  A  2.72258648e-01  2.02686600e-01 ; HFE | TIP3P | ref1
MERZ_Ca2plus_HFE_SPCE                 20    40.07800  0.0000  A  2.70833210e-01  1.90799019e-01 ; HFE | SPC/E | ref1
MERZ_Ca2plus_HFE_TIP4PEW              20    40.07800  0.0000  A  2.61389684e-01  1.23860751e-01 ; HFE | TIP4PEW | ref1
MERZ_Sn2plus_HFE_TIP3P                50   118.71000  0.0000  A  2.74931344e-01  2.26289715e-01 ; HFE | TIP3P | ref1
MERZ_Sn2plus_HFE_SPCE                 50   118.71000  0.0000  A  2.72971367e-01  2.08812352e-01 ; HFE | SPC/E | ref1
MERZ_Sn2plus_HFE_TIP4PEW              50   118.71000  0.0000  A  2.63527841e-01  1.37276454e-01 ; HFE | TIP4PEW | ref1
MERZ_Pb2plus_HFE_TIP3P                82   207.20000  0.0000  A  2.88651185e-01  3.75123800e-01 ; HFE | TIP3P | ref1
MERZ_Pb2plus_HFE_SPCE                 82   207.20000  0.0000  A  2.86691207e-01  3.51005802e-01 ; HFE | SPC/E | ref1
MERZ_Pb2plus_HFE_TIP4PEW              82   207.20000  0.0000  A  2.76356782e-01  2.39587137e-01 ; HFE | TIP4PEW | ref1
MERZ_Eu2plus_HFE_TIP3P                63   151.96400  0.0000  A  2.96847453e-01  4.86086158e-01 ; HFE | TIP3P | ref1
MERZ_Eu2plus_HFE_SPCE                 63   151.96400  0.0000  A  2.95065655e-01  4.60600744e-01 ; HFE | SPC/E | ref1
MERZ_Eu2plus_HFE_TIP4PEW              63   151.96400  0.0000  A  2.84374871e-01  3.23727628e-01 ; HFE | TIP4PEW | ref1
MERZ_Sr2plus_HFE_TIP3P                38    87.62000  0.0000  A  2.97916531e-01  5.01731682e-01 ; HFE | TIP3P | ref1
MERZ_Sr2plus_HFE_SPCE                 38    87.62000  0.0000  A  2.95600195e-01  4.68168303e-01 ; HFE | SPC/E | ref1
MERZ_Sr2plus_HFE_TIP4PEW              38    87.62000  0.0000  A  2.86156668e-01  3.44592817e-01 ; HFE | TIP4PEW | ref1
MERZ_Sm2plus_HFE_TIP3P                62   150.36000  0.0000  A  2.99341969e-01  5.22999707e-01 ; HFE | TIP3P | ref1
MERZ_Sm2plus_HFE_SPCE                 62   150.36000  0.0000  A  2.97025633e-01  4.88675426e-01 ; HFE | SPC/E | ref1
MERZ_Sm2plus_HFE_TIP4PEW              62   150.36000  0.0000  A  2.86156668e-01  3.44592817e-01 ; HFE | TIP4PEW | ref1
MERZ_Ba2plus_HFE_TIP3P                56   137.32700  0.0000  A  3.28207088e-01  1.03852026e+00 ; HFE | TIP3P | ref1
MERZ_Ba2plus_HFE_SPCE                 56   137.32700  0.0000  A  3.25178032e-01  9.78254429e-01 ; HFE | SPC/E | ref1
MERZ_Ba2plus_HFE_TIP4PEW              56   137.32700  0.0000  A  3.15021787e-01  7.85222744e-01 ; HFE | TIP4PEW | ref1
MERZ_Ra2plus_HFE_TIP3P                88   226.00000  0.0000  A  3.28207088e-01  1.03852026e+00 ; HFE | TIP3P | ref1
MERZ_Ra2plus_HFE_SPCE                 88   226.00000  0.0000  A  3.25178032e-01  9.78254429e-01 ; HFE | SPC/E | ref1
MERZ_Ra2plus_HFE_TIP4PEW              88   226.00000  0.0000  A  3.15021787e-01  7.85222744e-01 ; HFE | TIP4PEW | ref1
MERZ_Be2plus_IOD_TIP3P                 4     9.01218  0.0000  A  2.08113941e-01  2.63859776e-03 ; IOD | TIP3P | ref1
MERZ_Be2plus_IOD_SPCE                  4     9.01218  0.0000  A  2.08113941e-01  2.63859776e-03 ; IOD | SPC/E | ref1
MERZ_Be2plus_IOD_TIP4PEW               4     9.01218  0.0000  A  2.08113941e-01  2.63859776e-03 ; IOD | TIP4PEW | ref1
MERZ_Cu2plus_IOD_TIP3P                29    63.54600  0.0000  A  2.51055259e-01  7.20066400e-02 ; IOD | TIP3P | ref1
MERZ_Cu2plus_IOD_SPCE                 29    63.54600  0.0000  A  2.51055259e-01  7.20066400e-02 ; IOD | SPC/E | ref1
MERZ_Cu2plus_IOD_TIP4PEW              29    63.54600  0.0000  A  2.51055259e-01  7.20066400e-02 ; IOD | TIP4PEW | ref1
MERZ_Ni2plus_IOD_TIP3P                28    58.69340  0.0000  A  2.44640788e-01  4.93449663e-02 ; IOD | TIP3P | ref1
MERZ_Ni2plus_IOD_SPCE                 28    58.69340  0.0000  A  2.44640788e-01  4.93449663e-02 ; IOD | SPC/E | ref1
MERZ_Ni2plus_IOD_TIP4PEW              28    58.69340  0.0000  A  2.44640788e-01  4.93449663e-02 ; IOD | TIP4PEW | ref1
MERZ_Zn2plus_IOD_TIP3P                30    65.38000  0.0000  A  2.48560742e-01  6.24127280e-02 ; IOD | TIP3P | ref1
MERZ_Zn2plus_IOD_SPCE                 30    65.38000  0.0000  A  2.48560742e-01  6.24127280e-02 ; IOD | SPC/E | ref1
MERZ_Zn2plus_IOD_TIP4PEW              30    65.38000  0.0000  A  2.48560742e-01  6.24127280e-02 ; IOD | TIP4PEW | ref1
MERZ_Co2plus_IOD_TIP3P                27    58.93319  0.0000  A  2.50164360e-01  6.84605326e-02 ; IOD | TIP3P | ref1
MERZ_Co2plus_IOD_SPCE                 27    58.93319  0.0000  A  2.50164360e-01  6.84605326e-02 ; IOD | SPC/E | ref1
MERZ_Co2plus_IOD_TIP4PEW              27    58.93319  0.0000  A  2.50164360e-01  6.84605326e-02 ; IOD | TIP4PEW | ref1
MERZ_Cr2plus_IOD_TIP3P                24    51.99610  0.0000  A  2.47313484e-01  5.79973946e-02 ; IOD | TIP3P | ref1
MERZ_Cr2plus_IOD_SPCE                 24    51.99610  0.0000  A  2.47313484e-01  5.79973946e-02 ; IOD | SPC/E | ref1
MERZ_Cr2plus_IOD_TIP4PEW              24    51.99610  0.0000  A  2.47313484e-01  5.79973946e-02 ; IOD | TIP4PEW | ref1
MERZ_Fe2plus_IOD_TIP3P                26    55.84500  0.0000  A  2.51055259e-01  7.20066400e-02 ; IOD | TIP3P | ref1
MERZ_Fe2plus_IOD_SPCE                 26    55.84500  0.0000  A  2.51055259e-01  7.20066400e-02 ; IOD | SPC/E | ref1
MERZ_Fe2plus_IOD_TIP4PEW              26    55.84500  0.0000  A  2.51055259e-01  7.20066400e-02 ; IOD | TIP4PEW | ref1
MERZ_Mg2plus_IOD_TIP3P                12    24.30500  0.0000  A  2.48560742e-01  6.24127280e-02 ; IOD | TIP3P | ref1
MERZ_Mg2plus_IOD_SPCE                 12    24.30500  0.0000  A  2.48560742e-01  6.24127280e-02 ; IOD | SPC/E | ref1
MERZ_Mg2plus_IOD_TIP4PEW              12    24.30500  0.0000  A  2.48560742e-01  6.24127280e-02 ; IOD | TIP4PEW | ref1
MERZ_V2plus_IOD_TIP3P                 23    50.94150  0.0000  A  2.62993302e-01  1.33830261e-01 ; IOD | TIP3P | ref1
MERZ_V2plus_IOD_SPCE                  23    50.94150  0.0000  A  2.62993302e-01  1.33830261e-01 ; IOD | SPC/E | ref1
MERZ_V2plus_IOD_TIP4PEW               23    50.94150  0.0000  A  2.62993302e-01  1.33830261e-01 ; IOD | TIP4PEW | ref1
MERZ_Mn2plus_IOD_TIP3P                25    54.93804  0.0000  A  2.61389684e-01  1.23860751e-01 ; IOD | TIP3P | ref1
MERZ_Mn2plus_IOD_SPCE                 25    54.93804  0.0000  A  2.61389684e-01  1.23860751e-01 ; IOD | SPC/E | ref1
MERZ_Mn2plus_IOD_TIP4PEW              25    54.93804  0.0000  A  2.61389684e-01  1.23860751e-01 ; IOD | TIP4PEW | ref1
MERZ_Hg2plus_IOD_TIP3P                80   200.59200  0.0000  A  2.80633096e-01  2.82478199e-01 ; IOD | TIP3P | ref1
MERZ_Hg2plus_IOD_SPCE                 80   200.59200  0.0000  A  2.80633096e-01  2.82478199e-01 ; IOD | SPC/E | ref1
MERZ_Hg2plus_IOD_TIP4PEW              80   200.59200  0.0000  A  2.80633096e-01  2.82478199e-01 ; IOD | TIP4PEW | ref1
MERZ_Cd2plus_IOD_TIP3P                48   112.41400  0.0000  A  2.68338694e-01  1.71148570e-01 ; IOD | TIP3P | ref1
MERZ_Cd2plus_IOD_SPCE                 48   112.41400  0.0000  A  2.68338694e-01  1.71148570e-01 ; IOD | SPC/E | ref1
MERZ_Cd2plus_IOD_TIP4PEW              48   112.41400  0.0000  A  2.68338694e-01  1.71148570e-01 ; IOD | TIP4PEW | ref1
MERZ_Ca2plus_IOD_TIP3P                20    40.07800  0.0000  A  2.86513028e-01  3.48860288e-01 ; IOD | TIP3P | ref1
MERZ_Ca2plus_IOD_SPCE                 20    40.07800  0.0000  A  2.86513028e-01  3.48860288e-01 ; IOD | SPC/E | ref1
MERZ_Ca2plus_IOD_TIP4PEW              20    40.07800  0.0000  A  2.86513028e-01  3.48860288e-01 ; IOD | TIP4PEW | ref1
MERZ_Sn2plus_IOD_TIP3P                50   118.71000  0.0000  A  3.09676394e-01  6.90372385e-01 ; IOD | TIP3P | ref1
MERZ_Sn2plus_IOD_SPCE                 50   118.71000  0.0000  A  3.09676394e-01  6.90372385e-01 ; IOD | SPC/E | ref1
MERZ_Sn2plus_IOD_TIP4PEW              50   118.71000  0.0000  A  3.09676394e-01  6.90372385e-01 ; IOD | TIP4PEW | ref1
MERZ_Sr2plus_IOD_TIP3P                38    87.62000  0.0000  A  3.12349091e-01  7.37150467e-01 ; IOD | TIP3P | ref1
MERZ_Sr2plus_IOD_SPCE                 38    87.62000  0.0000  A  3.12349091e-01  7.37150467e-01 ; IOD | SPC/E | ref1
MERZ_Sr2plus_IOD_TIP4PEW              38    87.62000  0.0000  A  3.12349091e-01  7.37150467e-01 ; IOD | TIP4PEW | ref1
MERZ_Ba2plus_IOD_TIP3P                56   137.32700  0.0000  A  3.40857850e-01  1.29955852e+00 ; IOD | TIP3P | ref1
MERZ_Ba2plus_IOD_SPCE                 56   137.32700  0.0000  A  3.40857850e-01  1.29955852e+00 ; IOD | SPC/E | ref1
MERZ_Ba2plus_IOD_TIP4PEW              56   137.32700  0.0000  A  3.40857850e-01  1.29955852e+00 ; IOD | TIP4PEW | ref1
MERZ_Be2plus_CM_TIP3P                  4     9.01218  0.0000  A  1.70339835e-01  1.65268000e-05 ; CM | TIP3P | ref1
MERZ_Be2plus_CM_SPCE                   4     9.01218  0.0000  A  1.71230734e-01  1.92464000e-05 ; CM | SPC/E | ref1
MERZ_Be2plus_CM_TIP4PEW                4     9.01218  0.0000  A  1.63569005e-01  4.85344000e-06 ; CM | TIP4PEW | ref1
MERZ_Cu2plus_CM_TIP3P                 29    63.54600  0.0000  A  2.17022928e-01  6.21311448e-03 ; CM | TIP3P | ref1
MERZ_Cu2plus_CM_SPCE                  29    63.54600  0.0000  A  2.17913826e-01  6.73038240e-03 ; CM | SPC/E | ref1
MERZ_Cu2plus_CM_TIP4PEW               29    63.54600  0.0000  A  2.12924794e-01  4.24537928e-03 ; CM | TIP4PEW | ref1
MERZ_Ni2plus_CM_TIP3P                 28    58.69340  0.0000  A  2.23615578e-01  1.09754688e-02 ; CM | TIP3P | ref1
MERZ_Ni2plus_CM_SPCE                  28    58.69340  0.0000  A  2.23259219e-01  1.06570246e-02 ; CM | SPC/E | ref1
MERZ_Ni2plus_CM_TIP4PEW               28    58.69340  0.0000  A  2.17557467e-01  6.51925776e-03 ; CM | TIP4PEW | ref1
MERZ_Pt2plus_CM_TIP3P                 78   195.08400  0.0000  A  2.25575555e-01  1.28717413e-02 ; CM | TIP3P | ref1
MERZ_Pt2plus_CM_SPCE                  78   195.08400  0.0000  A  2.26644634e-01  1.40153540e-02 ; CM | SPC/E | ref1
MERZ_Pt2plus_CM_TIP4PEW               78   195.08400  0.0000  A  2.22902859e-01  1.03462789e-02 ; CM | TIP4PEW | ref1
MERZ_Zn2plus_CM_TIP3P                 30    65.38000  0.0000  A  2.26466454e-01  1.38191662e-02 ; CM | TIP3P | ref1
MERZ_Zn2plus_CM_SPCE                  30    65.38000  0.0000  A  2.27357353e-01  1.48233681e-02 ; CM | SPC/E | ref1
MERZ_Zn2plus_CM_TIP4PEW               30    65.38000  0.0000  A  2.23081039e-01  1.05007103e-02 ; CM | TIP4PEW | ref1
MERZ_Co2plus_CM_TIP3P                 27    58.93319  0.0000  A  2.31455487e-01  2.02460413e-02 ; CM | TIP3P | ref1
MERZ_Co2plus_CM_SPCE                  27    58.93319  0.0000  A  2.32524565e-01  2.18984284e-02 ; CM | SPC/E | ref1
MERZ_Co2plus_CM_TIP4PEW               27    58.93319  0.0000  A  2.29495510e-01  1.74802081e-02 ; CM | TIP4PEW | ref1
MERZ_Pd2plus_CM_TIP3P                 46   106.42000  0.0000  A  2.32168206e-01  2.13359314e-02 ; CM | TIP3P | ref1
MERZ_Pd2plus_CM_SPCE                  46   106.42000  0.0000  A  2.32524565e-01  2.18984284e-02 ; CM | SPC/E | ref1
MERZ_Pd2plus_CM_TIP4PEW               46   106.42000  0.0000  A  2.29495510e-01  1.74802081e-02 ; CM | TIP4PEW | ref1
MERZ_Ag2plus_CM_TIP3P                 47   107.86820  0.0000  A  2.38048137e-01  3.22573430e-02 ; CM | TIP3P | ref1
MERZ_Ag2plus_CM_SPCE                  47   107.86820  0.0000  A  2.38226317e-01  3.26469989e-02 ; CM | SPC/E | ref1
MERZ_Ag2plus_CM_TIP4PEW               47   107.86820  0.0000  A  2.35731801e-01  2.75202182e-02 ; CM | TIP4PEW | ref1
MERZ_Cr2plus_CM_TIP3P                 24    51.99610  0.0000  A  2.39829935e-01  3.63245675e-02 ; CM | TIP3P | ref1
MERZ_Cr2plus_CM_SPCE                  24    51.99610  0.0000  A  2.40186294e-01  3.71845469e-02 ; CM | SPC/E | ref1
MERZ_Cr2plus_CM_TIP4PEW               24    51.99610  0.0000  A  2.37513598e-01  3.11105086e-02 ; CM | TIP4PEW | ref1
MERZ_Fe2plus_CM_TIP3P                 26    55.84500  0.0000  A  2.41077193e-01  3.94048283e-02 ; CM | TIP3P | ref1
MERZ_Fe2plus_CM_SPCE                  26    55.84500  0.0000  A  2.41255373e-01  3.98611354e-02 ; CM | SPC/E | ref1
MERZ_Fe2plus_CM_TIP4PEW               26    55.84500  0.0000  A  2.39295396e-01  3.50640957e-02 ; CM | TIP4PEW | ref1
MERZ_Mg2plus_CM_TIP3P                 12    24.30500  0.0000  A  2.42324451e-01  4.26867161e-02 ; CM | TIP3P | ref1
MERZ_Mg2plus_CM_SPCE                  12    24.30500  0.0000  A  2.42324451e-01  4.26867161e-02 ; CM | SPC/E | ref1
MERZ_Mg2plus_CM_TIP4PEW               12    24.30500  0.0000  A  2.41077193e-01  3.94048283e-02 ; CM | TIP4PEW | ref1
MERZ_V2plus_CM_TIP3P                  23    50.94150  0.0000  A  2.43037170e-01  4.46557902e-02 ; CM | TIP3P | ref1
MERZ_V2plus_CM_SPCE                   23    50.94150  0.0000  A  2.43215350e-01  4.51589580e-02 ; CM | SPC/E | ref1
MERZ_V2plus_CM_TIP4PEW                23    50.94150  0.0000  A  2.41077193e-01  3.94048283e-02 ; CM | TIP4PEW | ref1
MERZ_Mn2plus_CM_TIP3P                 25    54.93804  0.0000  A  2.50698899e-01  7.05719464e-02 ; CM | TIP3P | ref1
MERZ_Mn2plus_CM_SPCE                  25    54.93804  0.0000  A  2.50520720e-01  6.98627584e-02 ; CM | SPC/E | ref1
MERZ_Mn2plus_CM_TIP4PEW               25    54.93804  0.0000  A  2.49629821e-01  6.63973186e-02 ; CM | TIP4PEW | ref1
MERZ_Hg2plus_CM_TIP3P                 80   200.59200  0.0000  A  2.50698899e-01  7.05719464e-02 ; CM | TIP3P | ref1
MERZ_Hg2plus_CM_SPCE                  80   200.59200  0.0000  A  2.50520720e-01  6.98627584e-02 ; CM | SPC/E | ref1
MERZ_Hg2plus_CM_TIP4PEW               80   200.59200  0.0000  A  2.49629821e-01  6.63973186e-02 ; CM | TIP4PEW | ref1
MERZ_Cd2plus_CM_TIP3P                 48   112.41400  0.0000  A  2.51589798e-01  7.41997254e-02 ; CM | TIP3P | ref1
MERZ_Cd2plus_CM_SPCE                  48   112.41400  0.0000  A  2.51589798e-01  7.41997254e-02 ; CM | SPC/E | ref1
MERZ_Cd2plus_CM_TIP4PEW               48   112.41400  0.0000  A  2.50520720e-01  6.98627584e-02 ; CM | TIP4PEW | ref1
MERZ_Yb2plus_CM_TIP3P                 70   173.04500  0.0000  A  2.92571139e-01  4.26181194e-01 ; CM | TIP3P | ref1
MERZ_Yb2plus_CM_SPCE                  70   173.04500  0.0000  A  2.91145701e-01  4.07182738e-01 ; CM | SPC/E | ref1
MERZ_Yb2plus_CM_TIP4PEW               70   173.04500  0.0000  A  2.94709296e-01  4.55593124e-01 ; CM | TIP4PEW | ref1
MERZ_Ca2plus_CM_TIP3P                 20    40.07800  0.0000  A  2.93818397e-01  4.43205681e-01 ; CM | TIP3P | ref1
MERZ_Ca2plus_CM_SPCE                  20    40.07800  0.0000  A  2.91323881e-01  4.09530673e-01 ; CM | SPC/E | ref1
MERZ_Ca2plus_CM_TIP4PEW               20    40.07800  0.0000  A  2.95243835e-01  4.63115789e-01 ; CM | TIP4PEW | ref1
MERZ_Sn2plus_CM_TIP3P                 50   118.71000  0.0000  A  2.96847453e-01  4.86086158e-01 ; CM | TIP3P | ref1
MERZ_Sn2plus_CM_SPCE                  50   118.71000  0.0000  A  2.94174757e-01  4.48138031e-01 ; CM | SPC/E | ref1
MERZ_Sn2plus_CM_TIP4PEW               50   118.71000  0.0000  A  2.97560172e-01  4.96487247e-01 ; CM | TIP4PEW | ref1
MERZ_Pb2plus_CM_TIP3P                 82   207.20000  0.0000  A  3.10923653e-01  7.12036216e-01 ; CM | TIP3P | ref1
MERZ_Pb2plus_CM_SPCE                  82   207.20000  0.0000  A  3.08429136e-01  6.69006956e-01 ; CM | SPC/E | ref1
MERZ_Pb2plus_CM_TIP4PEW               82   207.20000  0.0000  A  3.13239989e-01  7.53034646e-01 ; CM | TIP4PEW | ref1
MERZ_Eu2plus_CM_TIP3P                 63   151.96400  0.0000  A  3.21079898e-01  8.98552325e-01 ; CM | TIP3P | ref1
MERZ_Eu2plus_CM_SPCE                  63   151.96400  0.0000  A  3.18229022e-01  8.44505254e-01 ; CM | SPC/E | ref1
MERZ_Eu2plus_CM_TIP4PEW               63   151.96400  0.0000  A  3.24821673e-01  9.71236522e-01 ; CM | TIP4PEW | ref1
MERZ_Sr2plus_CM_TIP3P                 38    87.62000  0.0000  A  3.22505336e-01  9.26018528e-01 ; CM | TIP3P | ref1
MERZ_Sr2plus_CM_SPCE                  38    87.62000  0.0000  A  3.19654460e-01  8.71376827e-01 ; CM | SPC/E | ref1
MERZ_Sr2plus_CM_TIP4PEW               38    87.62000  0.0000  A  3.25534392e-01  9.85288068e-01 ; CM | TIP4PEW | ref1
MERZ_Sm2plus_CM_TIP3P                 62   150.36000  0.0000  A  3.24108954e-01  9.57248825e-01 ; CM | TIP3P | ref1
MERZ_Sm2plus_CM_SPCE                  62   150.36000  0.0000  A  3.20723539e-01  8.91730690e-01 ; CM | SPC/E | ref1
MERZ_Sm2plus_CM_TIP4PEW               62   150.36000  0.0000  A  3.27494369e-01  1.02424479e+00 ; CM | TIP4PEW | ref1
MERZ_Ba2plus_CM_TIP3P                 56   137.32700  0.0000  A  3.59744902e-01  1.70140720e+00 ; CM | TIP3P | ref1
MERZ_Ba2plus_CM_SPCE                  56   137.32700  0.0000  A  3.52795892e-01  1.55336866e+00 ; CM | SPC/E | ref1
MERZ_Ba2plus_CM_TIP4PEW               56   137.32700  0.0000  A  3.65268474e-01  1.81812979e+00 ; CM | TIP4PEW | ref1
MERZ_Ra2plus_CM_TIP3P                 88   226.00000  0.0000  A  3.59744902e-01  1.70140720e+00 ; CM | TIP3P | ref1
MERZ_Ra2plus_CM_SPCE                  88   226.00000  0.0000  A  3.52795892e-01  1.55336866e+00 ; CM | SPC/E | ref1
MERZ_Ra2plus_CM_TIP4PEW               88   226.00000  0.0000  A  3.65268474e-01  1.81812979e+00 ; CM | TIP4PEW | ref1
; --- ref3 ---
MERZ_Al3plus_HFE_TIP3P                13    26.98154  0.0000  A  1.74794328e-01  3.48108800e-05 ; HFE | TIP3P | ref3
MERZ_Al3plus_HFE_SPCE                 13    26.98154  0.0000  A  1.76576126e-01  4.63168800e-05 ; HFE | SPC/E | ref3
MERZ_Al3plus_HFE_TIP4PEW              13    26.98154  0.0000  A  1.56085455e-01  1.08784000e-06 ; HFE | TIP4PEW | ref3
MERZ_Fe3plus_HFE_TIP3P                26    55.84500  0.0000  A  1.92790483e-01  4.60951280e-04 ; HFE | TIP3P | ref3
MERZ_Fe3plus_HFE_SPCE                 26    55.84500  0.0000  A  1.94394100e-01  5.63250080e-04 ; HFE | SPC/E | ref3
MERZ_Fe3plus_HFE_TIP4PEW              26    55.84500  0.0000  A  1.75328868e-01  3.79488800e-05 ; HFE | TIP4PEW | ref3
MERZ_Cr3plus_HFE_TIP3P                24    51.99610  0.0000  A  2.11677535e-01  3.76430296e-03 ; HFE | TIP3P | ref3
MERZ_Cr3plus_HFE_SPCE                 24    51.99610  0.0000  A  2.13102973e-01  4.31822272e-03 ; HFE | SPC/E | ref3
MERZ_Cr3plus_HFE_TIP4PEW              24    51.99610  0.0000  A  1.95284999e-01  6.28394960e-04 ; HFE | TIP4PEW | ref3
MERZ_In3plus_HFE_TIP3P                49   114.81800  0.0000  A  2.14172052e-01  4.77804432e-03 ; HFE | TIP3P | ref3
MERZ_In3plus_HFE_SPCE                 49   114.81800  0.0000  A  2.15419310e-01  5.36669128e-03 ; HFE | SPC/E | ref3
MERZ_In3plus_HFE_TIP4PEW              49   114.81800  0.0000  A  1.97779515e-01  8.47678400e-04 ; HFE | TIP4PEW | ref3
MERZ_Tl3plus_HFE_TIP3P                81   204.38000  0.0000  A  2.14884771e-01  5.10728328e-03 ; HFE | TIP3P | ref3
MERZ_Tl3plus_HFE_SPCE                 81   204.38000  0.0000  A  2.16132029e-01  5.72994616e-03 ; HFE | SPC/E | ref3
MERZ_Tl3plus_HFE_TIP4PEW              81   204.38000  0.0000  A  1.98492234e-01  9.21609680e-04 ; HFE | TIP4PEW | ref3
MERZ_Y3plus_HFE_TIP3P                 39    88.90584  0.0000  A  2.59073347e-01  1.10415844e-01 ; HFE | TIP3P | ref3
MERZ_Y3plus_HFE_SPCE                  39    88.90584  0.0000  A  2.59964246e-01  1.15455472e-01 ; HFE | SPC/E | ref3
MERZ_Y3plus_HFE_TIP4PEW               39    88.90584  0.0000  A  2.44997147e-01  5.04369903e-02 ; HFE | TIP4PEW | ref3
MERZ_La3plus_HFE_TIP3P                57   138.90547  0.0000  A  2.90076623e-01  3.93257172e-01 ; HFE | TIP3P | ref3
MERZ_La3plus_HFE_SPCE                 57   138.90547  0.0000  A  2.90254802e-01  3.95558749e-01 ; HFE | SPC/E | ref3
MERZ_La3plus_HFE_TIP4PEW              57   138.90547  0.0000  A  2.76713142e-01  2.42989189e-01 ; HFE | TIP4PEW | ref3
MERZ_Ce3plus_HFE_TIP3P                58   140.11600  0.0000  A  2.84196691e-01  3.21684455e-01 ; HFE | TIP3P | ref3
MERZ_Ce3plus_HFE_SPCE                 58   140.11600  0.0000  A  2.84553051e-01  3.25778708e-01 ; HFE | SPC/E | ref3
MERZ_Ce3plus_HFE_TIP4PEW              58   140.11600  0.0000  A  2.70655031e-01  1.89346962e-01 ; HFE | TIP4PEW | ref3
MERZ_Pr3plus_HFE_TIP3P                59   140.90766  0.0000  A  2.79385838e-01  2.69501272e-01 ; HFE | TIP3P | ref3
MERZ_Pr3plus_HFE_SPCE                 59   140.90766  0.0000  A  2.79920377e-01  2.75015575e-01 ; HFE | SPC/E | ref3
MERZ_Pr3plus_HFE_TIP4PEW              59   140.90766  0.0000  A  2.65844177e-01  1.52935702e-01 ; HFE | TIP4PEW | ref3
MERZ_Nd3plus_HFE_TIP3P                60   144.24200  0.0000  A  2.75822243e-01  2.34542404e-01 ; HFE | TIP3P | ref3
MERZ_Nd3plus_HFE_SPCE                 60   144.24200  0.0000  A  2.76356782e-01  2.39587137e-01 ; HFE | SPC/E | ref3
MERZ_Nd3plus_HFE_TIP4PEW              60   144.24200  0.0000  A  2.62102403e-01  1.28223784e-01 ; HFE | TIP4PEW | ref3
MERZ_Sm3plus_HFE_TIP3P                62   150.36000  0.0000  A  2.71189570e-01  1.93725643e-01 ; HFE | TIP3P | ref3
MERZ_Sm3plus_HFE_SPCE                 62   150.36000  0.0000  A  2.71902289e-01  1.99669350e-01 ; HFE | SPC/E | ref3
MERZ_Sm3plus_HFE_TIP4PEW              62   150.36000  0.0000  A  2.57469730e-01  1.01749566e-01 ; HFE | TIP4PEW | ref3
MERZ_Eu3plus_HFE_TIP3P                63   151.96400  0.0000  A  2.67804155e-01  1.67126073e-01 ; HFE | TIP3P | ref3
MERZ_Eu3plus_HFE_SPCE                 63   151.96400  0.0000  A  2.68516874e-01  1.72504061e-01 ; HFE | SPC/E | ref3
MERZ_Eu3plus_HFE_TIP4PEW              63   151.96400  0.0000  A  2.53906135e-01  8.42872239e-02 ; HFE | TIP4PEW | ref3
MERZ_Gd3plus_HFE_TIP3P                64   157.25000  0.0000  A  2.66378717e-01  1.56719335e-01 ; HFE | TIP3P | ref3
MERZ_Gd3plus_HFE_SPCE                 64   157.25000  0.0000  A  2.67091436e-01  1.61864776e-01 ; HFE | SPC/E | ref3
MERZ_Gd3plus_HFE_TIP4PEW              64   157.25000  0.0000  A  2.52480697e-01  7.79659949e-02 ; HFE | TIP4PEW | ref3
MERZ_Tb3plus_HFE_TIP3P                65   158.92535  0.0000  A  2.63884200e-01  1.39608490e-01 ; HFE | TIP3P | ref3
MERZ_Tb3plus_HFE_SPCE                 65   158.92535  0.0000  A  2.64596919e-01  1.44356201e-01 ; HFE | SPC/E | ref3
MERZ_Tb3plus_HFE_TIP4PEW              65   158.92535  0.0000  A  2.49986180e-01  6.77674949e-02 ; HFE | TIP4PEW | ref3
MERZ_Dy3plus_HFE_TIP3P                66   162.50000  0.0000  A  2.61567864e-01  1.24941395e-01 ; HFE | TIP3P | ref3
MERZ_Dy3plus_HFE_SPCE                 66   162.50000  0.0000  A  2.62280583e-01  1.29331415e-01 ; HFE | SPC/E | ref3
MERZ_Dy3plus_HFE_TIP4PEW              66   162.50000  0.0000  A  2.47491664e-01  5.86130702e-02 ; HFE | TIP4PEW | ref3
MERZ_Er3plus_HFE_TIP3P                68   167.25900  0.0000  A  2.54975213e-01  8.92727110e-02 ; HFE | TIP3P | ref3
MERZ_Er3plus_HFE_SPCE                 68   167.25900  0.0000  A  2.55866112e-01  9.35912684e-02 ; HFE | SPC/E | ref3
MERZ_Er3plus_HFE_TIP4PEW              68   167.25900  0.0000  A  2.40542654e-01  3.80605091e-02 ; HFE | TIP4PEW | ref3
MERZ_Tm3plus_HFE_TIP3P                69   168.93422  0.0000  A  2.53193416e-01  8.10806482e-02 ; HFE | TIP3P | ref3
MERZ_Tm3plus_HFE_SPCE                 69   168.93422  0.0000  A  2.54084314e-01  8.51034386e-02 ; HFE | SPC/E | ref3
MERZ_Tm3plus_HFE_TIP4PEW              69   168.93422  0.0000  A  2.38760856e-01  3.38384347e-02 ; HFE | TIP4PEW | ref3
MERZ_Lu3plus_HFE_TIP3P                71   174.96680  0.0000  A  2.53193416e-01  8.10806482e-02 ; HFE | TIP3P | ref3
MERZ_Lu3plus_HFE_SPCE                 71   174.96680  0.0000  A  2.54084314e-01  8.51034386e-02 ; HFE | SPC/E | ref3
MERZ_Lu3plus_HFE_TIP4PEW              71   174.96680  0.0000  A  2.38760856e-01  3.38384347e-02 ; HFE | TIP4PEW | ref3
MERZ_Hf4plus_HFE_TIP3P                72   178.49000  0.0000  A  1.93681381e-01  5.15510640e-04 ; HFE | TIP3P | ref3
MERZ_Hf4plus_HFE_SPCE                 72   178.49000  0.0000  A  1.95641359e-01  6.56260400e-04 ; HFE | SPC/E | ref3
MERZ_Hf4plus_HFE_TIP4PEW              72   178.49000  0.0000  A  1.74081610e-01  3.10034400e-05 ; HFE | TIP4PEW | ref3
MERZ_Zr4plus_HFE_TIP3P                40    91.22400  0.0000  A  2.02946728e-01  1.52628136e-03 ; HFE | TIP3P | ref3
MERZ_Zr4plus_HFE_SPCE                 40    91.22400  0.0000  A  2.04728525e-01  1.85158736e-03 ; HFE | SPC/E | ref3
MERZ_Zr4plus_HFE_TIP4PEW              40    91.22400  0.0000  A  1.83703316e-01  1.35561600e-04 ; HFE | TIP4PEW | ref3
MERZ_Ce4plus_HFE_TIP3P                58   140.11600  0.0000  A  2.41077193e-01  3.94048283e-02 ; HFE | TIP3P | ref3
MERZ_Ce4plus_HFE_SPCE                 58   140.11600  0.0000  A  2.42324451e-01  4.26867161e-02 ; HFE | SPC/E | ref3
MERZ_Ce4plus_HFE_TIP4PEW              58   140.11600  0.0000  A  2.23971938e-01  1.13018208e-02 ; HFE | TIP4PEW | ref3
MERZ_U4plus_HFE_TIP3P                 92   238.02891  0.0000  A  2.15419310e-01  5.36669128e-03 ; HFE | TIP3P | ref3
MERZ_U4plus_HFE_SPCE                  92   238.02891  0.0000  A  2.17022928e-01  6.21311448e-03 ; HFE | SPC/E | ref3
MERZ_U4plus_HFE_TIP4PEW               92   238.02891  0.0000  A  1.96888617e-01  7.62617680e-04 ; HFE | TIP4PEW | ref3
MERZ_Pu4plus_HFE_TIP3P                94   244.00000  0.0000  A  2.26822814e-01  1.42138848e-02 ; HFE | TIP3P | ref3
MERZ_Pu4plus_HFE_SPCE                 94   244.00000  0.0000  A  2.28248252e-01  1.58868572e-02 ; HFE | SPC/E | ref3
MERZ_Pu4plus_HFE_TIP4PEW              94   244.00000  0.0000  A  2.08826660e-01  2.83691936e-03 ; HFE | TIP4PEW | ref3
MERZ_Th4plus_HFE_TIP3P                90   232.03770  0.0000  A  2.60676965e-01  1.19605079e-01 ; HFE | TIP3P | ref3
MERZ_Th4plus_HFE_SPCE                 90   232.03770  0.0000  A  2.61567864e-01  1.24941395e-01 ; HFE | SPC/E | ref3
MERZ_Th4plus_HFE_TIP4PEW              90   232.03770  0.0000  A  2.44106249e-01  4.77413646e-02 ; HFE | TIP4PEW | ref3
MERZ_Al3plus_IOD_TIP3P                13    26.98154  0.0000  A  2.31099127e-01  1.97183134e-02 ; IOD | TIP3P | ref3
MERZ_Al3plus_IOD_SPCE                 13    26.98154  0.0000  A  2.30920948e-01  1.94586962e-02 ; IOD | SPC/E | ref3
MERZ_Al3plus_IOD_TIP4PEW              13    26.98154  0.0000  A  2.28960971e-01  1.67820658e-02 ; IOD | TIP4PEW | ref3
MERZ_Fe3plus_IOD_TIP3P                26    55.84500  0.0000  A  2.46957125e-01  5.67809385e-02 ; IOD | TIP3P | ref3
MERZ_Fe3plus_IOD_SPCE                 26    55.84500  0.0000  A  2.46957125e-01  5.67809385e-02 ; IOD | SPC/E | ref3
MERZ_Fe3plus_IOD_TIP4PEW              26    55.84500  0.0000  A  2.44997147e-01  5.04369903e-02 ; IOD | TIP4PEW | ref3
MERZ_Cr3plus_IOD_TIP3P                24    51.99610  0.0000  A  2.39473575e-01  3.54803200e-02 ; IOD | TIP3P | ref3
MERZ_Cr3plus_IOD_SPCE                 24    51.99610  0.0000  A  2.39295396e-01  3.50640957e-02 ; IOD | SPC/E | ref3
MERZ_Cr3plus_IOD_TIP4PEW              24    51.99610  0.0000  A  2.37513598e-01  3.11105086e-02 ; IOD | TIP4PEW | ref3
MERZ_In3plus_IOD_TIP3P                49   114.81800  0.0000  A  2.60320605e-01  1.17517096e-01 ; IOD | TIP3P | ref3
MERZ_In3plus_IOD_SPCE                 49   114.81800  0.0000  A  2.60320605e-01  1.17517096e-01 ; IOD | SPC/E | ref3
MERZ_In3plus_IOD_TIP4PEW              49   114.81800  0.0000  A  2.58360628e-01  1.06500498e-01 ; IOD | TIP4PEW | ref3
MERZ_Tl3plus_IOD_TIP3P                81   204.38000  0.0000  A  2.69585952e-01  1.80791853e-01 ; IOD | TIP3P | ref3
MERZ_Tl3plus_IOD_SPCE                 81   204.38000  0.0000  A  2.69585952e-01  1.80791853e-01 ; IOD | SPC/E | ref3
MERZ_Tl3plus_IOD_TIP4PEW              81   204.38000  0.0000  A  2.67625975e-01  1.65799828e-01 ; IOD | TIP4PEW | ref3
MERZ_Y3plus_IOD_TIP3P                 39    88.90584  0.0000  A  2.85443949e-01  3.36152225e-01 ; IOD | TIP3P | ref3
MERZ_Y3plus_IOD_SPCE                  39    88.90584  0.0000  A  2.85443949e-01  3.36152225e-01 ; IOD | SPC/E | ref3
MERZ_Y3plus_IOD_TIP4PEW               39    88.90584  0.0000  A  2.83305792e-01  3.11586915e-01 ; IOD | TIP4PEW | ref3
MERZ_La3plus_IOD_TIP3P                57   138.90547  0.0000  A  3.06112800e-01  6.30144792e-01 ; IOD | TIP3P | ref3
MERZ_La3plus_IOD_SPCE                 57   138.90547  0.0000  A  3.06112800e-01  6.30144792e-01 ; IOD | SPC/E | ref3
MERZ_La3plus_IOD_TIP4PEW              57   138.90547  0.0000  A  3.04152822e-01  5.98118155e-01 ; IOD | TIP4PEW | ref3
MERZ_Ce3plus_IOD_TIP3P                58   140.11600  0.0000  A  3.10210934e-01  6.99620782e-01 ; IOD | TIP3P | ref3
MERZ_Ce3plus_IOD_SPCE                 58   140.11600  0.0000  A  3.10210934e-01  6.99620782e-01 ; IOD | SPC/E | ref3
MERZ_Ce3plus_IOD_TIP4PEW              58   140.11600  0.0000  A  3.08072777e-01  6.62958398e-01 ; IOD | TIP4PEW | ref3
MERZ_Pr3plus_IOD_TIP3P                59   140.90766  0.0000  A  3.08785496e-01  6.75080492e-01 ; IOD | TIP3P | ref3
MERZ_Pr3plus_IOD_SPCE                 59   140.90766  0.0000  A  3.08963675e-01  6.78126570e-01 ; IOD | SPC/E | ref3
MERZ_Pr3plus_IOD_TIP4PEW              59   140.90766  0.0000  A  3.06825519e-01  6.41987353e-01 ; IOD | TIP4PEW | ref3
MERZ_Nd3plus_IOD_TIP3P                60   144.24200  0.0000  A  2.99520149e-01  5.25690605e-01 ; IOD | TIP3P | ref3
MERZ_Nd3plus_IOD_SPCE                 60   144.24200  0.0000  A  2.99520149e-01  5.25690605e-01 ; IOD | SPC/E | ref3
MERZ_Nd3plus_IOD_TIP4PEW              60   144.24200  0.0000  A  2.97381992e-01  4.93875971e-01 ; IOD | TIP4PEW | ref3
MERZ_Sm3plus_IOD_TIP3P                62   150.36000  0.0000  A  2.95600195e-01  4.68168303e-01 ; IOD | TIP3P | ref3
MERZ_Sm3plus_IOD_SPCE                 62   150.36000  0.0000  A  2.95600195e-01  4.68168303e-01 ; IOD | SPC/E | ref3
MERZ_Sm3plus_IOD_TIP4PEW              62   150.36000  0.0000  A  2.93462038e-01  4.38303581e-01 ; IOD | TIP4PEW | ref3
MERZ_Eu3plus_IOD_TIP3P                63   151.96400  0.0000  A  2.96847453e-01  4.86086158e-01 ; IOD | TIP3P | ref3
MERZ_Eu3plus_IOD_SPCE                 63   151.96400  0.0000  A  2.96847453e-01  4.86086158e-01 ; IOD | SPC/E | ref3
MERZ_Eu3plus_IOD_TIP4PEW              63   151.96400  0.0000  A  2.94887476e-01  4.58093190e-01 ; IOD | TIP4PEW | ref3
MERZ_Gd3plus_IOD_TIP3P                64   157.25000  0.0000  A  2.89185724e-01  3.81865479e-01 ; IOD | TIP3P | ref3
MERZ_Gd3plus_IOD_SPCE                 64   157.25000  0.0000  A  2.89185724e-01  3.81865479e-01 ; IOD | SPC/E | ref3
MERZ_Gd3plus_IOD_TIP4PEW              64   157.25000  0.0000  A  2.87225747e-01  3.57489495e-01 ; IOD | TIP4PEW | ref3
MERZ_Tb3plus_IOD_TIP3P                65   158.92535  0.0000  A  2.90432982e-01  3.97868108e-01 ; IOD | TIP3P | ref3
MERZ_Tb3plus_IOD_SPCE                 65   158.92535  0.0000  A  2.90432982e-01  3.97868108e-01 ; IOD | SPC/E | ref3
MERZ_Tb3plus_IOD_TIP4PEW              65   158.92535  0.0000  A  2.88473005e-01  3.72892138e-01 ; IOD | TIP4PEW | ref3
MERZ_Dy3plus_IOD_TIP3P                66   162.50000  0.0000  A  2.86691207e-01  3.51005802e-01 ; IOD | TIP3P | ref3
MERZ_Dy3plus_IOD_SPCE                 66   162.50000  0.0000  A  2.86691207e-01  3.51005802e-01 ; IOD | SPC/E | ref3
MERZ_Dy3plus_IOD_TIP4PEW              66   162.50000  0.0000  A  2.84553051e-01  3.25778708e-01 ; IOD | TIP4PEW | ref3
MERZ_Er3plus_IOD_TIP3P                68   167.25900  0.0000  A  2.85443949e-01  3.36152225e-01 ; IOD | TIP3P | ref3
MERZ_Er3plus_IOD_SPCE                 68   167.25900  0.0000  A  2.85443949e-01  3.36152225e-01 ; IOD | SPC/E | ref3
MERZ_Er3plus_IOD_TIP4PEW              68   167.25900  0.0000  A  2.83305792e-01  3.11586915e-01 ; IOD | TIP4PEW | ref3
MERZ_Tm3plus_IOD_TIP3P                69   168.93422  0.0000  A  2.85443949e-01  3.36152225e-01 ; IOD | TIP3P | ref3
MERZ_Tm3plus_IOD_SPCE                 69   168.93422  0.0000  A  2.85443949e-01  3.36152225e-01 ; IOD | SPC/E | ref3
MERZ_Tm3plus_IOD_TIP4PEW              69   168.93422  0.0000  A  2.83305792e-01  3.11586915e-01 ; IOD | TIP4PEW | ref3
MERZ_Lu3plus_IOD_TIP3P                71   174.96680  0.0000  A  2.82949433e-01  3.07603161e-01 ; IOD | TIP3P | ref3
MERZ_Lu3plus_IOD_SPCE                 71   174.96680  0.0000  A  2.82949433e-01  3.07603161e-01 ; IOD | SPC/E | ref3
MERZ_Lu3plus_IOD_TIP4PEW              71   174.96680  0.0000  A  2.80989456e-01  2.86256812e-01 ; IOD | TIP4PEW | ref3
MERZ_Hf4plus_IOD_TIP3P                72   178.49000  0.0000  A  2.67091436e-01  1.61864776e-01 ; IOD | TIP3P | ref3
MERZ_Hf4plus_IOD_SPCE                 72   178.49000  0.0000  A  2.67447795e-01  1.64480906e-01 ; IOD | SPC/E | ref3
MERZ_Hf4plus_IOD_TIP4PEW              72   178.49000  0.0000  A  2.64240560e-01  1.41968392e-01 ; IOD | TIP4PEW | ref3
MERZ_Zr4plus_IOD_TIP3P                40    91.22400  0.0000  A  2.70655031e-01  1.89346962e-01 ; IOD | TIP3P | ref3
MERZ_Zr4plus_IOD_SPCE                 40    91.22400  0.0000  A  2.71011390e-01  1.92258566e-01 ; IOD | SPC/E | ref3
MERZ_Zr4plus_IOD_TIP4PEW              40    91.22400  0.0000  A  2.67804155e-01  1.67126073e-01 ; IOD | TIP4PEW | ref3
MERZ_Ce4plus_IOD_TIP3P                58   140.11600  0.0000  A  3.00054688e-01  5.33806184e-01 ; IOD | TIP3P | ref3
MERZ_Ce4plus_IOD_SPCE                 58   140.11600  0.0000  A  3.00945587e-01  5.47474099e-01 ; IOD | SPC/E | ref3
MERZ_Ce4plus_IOD_TIP4PEW              58   140.11600  0.0000  A  2.97025633e-01  4.88675426e-01 ; IOD | TIP4PEW | ref3
MERZ_U4plus_IOD_TIP3P                 92   238.02891  0.0000  A  3.00054688e-01  5.33806184e-01 ; IOD | TIP3P | ref3
MERZ_U4plus_IOD_SPCE                  92   238.02891  0.0000  A  3.00945587e-01  5.47474099e-01 ; IOD | SPC/E | ref3
MERZ_U4plus_IOD_TIP4PEW               92   238.02891  0.0000  A  2.97025633e-01  4.88675426e-01 ; IOD | TIP4PEW | ref3
MERZ_Pu4plus_IOD_TIP3P                94   244.00000  0.0000  A  2.96134734e-01  4.75802932e-01 ; IOD | TIP3P | ref3
MERZ_Pu4plus_IOD_SPCE                 94   244.00000  0.0000  A  2.96847453e-01  4.86086158e-01 ; IOD | SPC/E | ref3
MERZ_Pu4plus_IOD_TIP4PEW              94   244.00000  0.0000  A  2.93105678e-01  4.33431815e-01 ; IOD | TIP4PEW | ref3
MERZ_Th4plus_IOD_TIP3P                90   232.03770  0.0000  A  3.04331002e-01  6.00996454e-01 ; IOD | TIP3P | ref3
MERZ_Th4plus_IOD_SPCE                 90   232.03770  0.0000  A  3.05221901e-01  6.15488115e-01 ; IOD | SPC/E | ref3
MERZ_Th4plus_IOD_TIP4PEW              90   232.03770  0.0000  A  3.01123767e-01  5.50228844e-01 ; IOD | TIP4PEW | ref3
; --- ref4 ---
MERZ_Li1plus_HFE_TIP3P                 3     6.94000  0.0000  A  2.25753735e-01  1.30567996e-02 ; HFE | TIP3P | ref4
MERZ_Li1plus_HFE_SPCE                  3     6.94000  0.0000  A  2.24150117e-01  1.14679674e-02 ; HFE | SPC/E | ref4
MERZ_Li1plus_HFE_TIP4PEW               3     6.94000  0.0000  A  2.18448366e-01  7.05782224e-03 ; HFE | TIP4PEW | ref4
MERZ_Na1plus_HFE_TIP3P                11    22.98977  0.0000  A  2.62815122e-01  1.32695309e-01 ; HFE | TIP3P | ref4
MERZ_Na1plus_HFE_SPCE                 11    22.98977  0.0000  A  2.59073347e-01  1.10415844e-01 ; HFE | SPC/E | ref4
MERZ_Na1plus_HFE_TIP4PEW              11    22.98977  0.0000  A  2.55153393e-01  9.01244060e-02 ; HFE | TIP4PEW | ref4
MERZ_K1plus_HFE_TIP3P                 19    39.09830  0.0000  A  3.06290979e-01  6.33095726e-01 ; HFE | TIP3P | ref4
MERZ_K1plus_HFE_SPCE                  19    39.09830  0.0000  A  2.99876509e-01  5.31093864e-01 ; HFE | SPC/E | ref4
MERZ_K1plus_HFE_TIP4PEW               19    39.09830  0.0000  A  2.97381992e-01  4.93875971e-01 ; HFE | TIP4PEW | ref4
MERZ_Rb1plus_HFE_TIP3P                37    85.46780  0.0000  A  3.26781650e-01  1.01002664e+00 ; HFE | TIP3P | ref4
MERZ_Rb1plus_HFE_SPCE                 37    85.46780  0.0000  A  3.19298101e-01  8.64629918e-01 ; HFE | SPC/E | ref4
MERZ_Rb1plus_HFE_TIP4PEW              37    85.46780  0.0000  A  3.14843607e-01  7.81979224e-01 ; HFE | TIP4PEW | ref4
MERZ_Cs1plus_HFE_TIP3P                55   132.90545  0.0000  A  3.54221330e-01  1.58378973e+00 ; HFE | TIP3P | ref4
MERZ_Cs1plus_HFE_SPCE                 55   132.90545  0.0000  A  3.47985039e-01  1.45072702e+00 ; HFE | SPC/E | ref4
MERZ_Cs1plus_HFE_TIP4PEW              55   132.90545  0.0000  A  3.44955984e-01  1.38627895e+00 ; HFE | TIP4PEW | ref4
MERZ_Tl1plus_HFE_TIP3P                81   204.38000  0.0000  A  3.03440103e-01  5.86672238e-01 ; HFE | TIP3P | ref4
MERZ_Tl1plus_HFE_SPCE                 81   204.38000  0.0000  A  2.97203812e-01  4.91272017e-01 ; HFE | SPC/E | ref4
MERZ_Tl1plus_HFE_TIP4PEW              81   204.38000  0.0000  A  2.93283858e-01  4.35863890e-01 ; HFE | TIP4PEW | ref4
MERZ_Cu1plus_HFE_TIP3P                29    63.54600  0.0000  A  2.13993872e-01  4.69863200e-03 ; HFE | TIP3P | ref4
MERZ_Cu1plus_HFE_SPCE                 29    63.54600  0.0000  A  2.12390254e-01  4.03312496e-03 ; HFE | SPC/E | ref4
MERZ_Cu1plus_HFE_TIP4PEW              29    63.54600  0.0000  A  2.05975784e-01  2.11375680e-03 ; HFE | TIP4PEW | ref4
MERZ_Ag1plus_HFE_TIP3P                47   107.86820  0.0000  A  2.38939036e-01  3.42431530e-02 ; HFE | TIP3P | ref4
MERZ_Ag1plus_HFE_SPCE                 47   107.86820  0.0000  A  2.36979059e-01  2.99963512e-02 ; HFE | SPC/E | ref4
MERZ_Ag1plus_HFE_TIP4PEW              47   107.86820  0.0000  A  2.30564588e-01  1.89477879e-02 ; HFE | TIP4PEW | ref4
MERZ_Li1plus_IOD_TIP3P                 3     6.94000  0.0000  A  2.34306363e-01  2.48937540e-02 ; IOD | TIP3P | ref4
MERZ_Li1plus_IOD_SPCE                  3     6.94000  0.0000  A  2.34306363e-01  2.48937540e-02 ; IOD | SPC/E | ref4
MERZ_Li1plus_IOD_TIP4PEW               3     6.94000  0.0000  A  2.34306363e-01  2.48937540e-02 ; IOD | TIP4PEW | ref4
MERZ_Na1plus_IOD_TIP3P                11    22.98977  0.0000  A  2.61033324e-01  1.21719547e-01 ; IOD | TIP3P | ref4
MERZ_Na1plus_IOD_SPCE                 11    22.98977  0.0000  A  2.61033324e-01  1.21719547e-01 ; IOD | SPC/E | ref4
MERZ_Na1plus_IOD_TIP4PEW              11    22.98977  0.0000  A  2.61033324e-01  1.21719547e-01 ; IOD | TIP4PEW | ref4
MERZ_K1plus_IOD_TIP3P                 19    39.09830  0.0000  A  3.10923653e-01  7.12036216e-01 ; IOD | TIP3P | ref4
MERZ_K1plus_IOD_SPCE                  19    39.09830  0.0000  A  3.10923653e-01  7.12036216e-01 ; IOD | SPC/E | ref4
MERZ_K1plus_IOD_TIP4PEW               19    39.09830  0.0000  A  3.10923653e-01  7.12036216e-01 ; IOD | TIP4PEW | ref4
MERZ_Rb1plus_IOD_TIP3P                37    85.46780  0.0000  A  3.24287133e-01  9.60739661e-01 ; IOD | TIP3P | ref4
MERZ_Rb1plus_IOD_SPCE                 37    85.46780  0.0000  A  3.24287133e-01  9.60739661e-01 ; IOD | SPC/E | ref4
MERZ_Rb1plus_IOD_TIP4PEW              37    85.46780  0.0000  A  3.24287133e-01  9.60739661e-01 ; IOD | TIP4PEW | ref4
MERZ_Cs1plus_IOD_TIP3P                55   132.90545  0.0000  A  3.56359487e-01  1.62938558e+00 ; IOD | TIP3P | ref4
MERZ_Cs1plus_IOD_SPCE                 55   132.90545  0.0000  A  3.56359487e-01  1.62938558e+00 ; IOD | SPC/E | ref4
MERZ_Cs1plus_IOD_TIP4PEW              55   132.90545  0.0000  A  3.56359487e-01  1.62938558e+00 ; IOD | TIP4PEW | ref4
MERZ_Tl1plus_IOD_TIP3P                81   204.38000  0.0000  A  3.33196121e-01  1.13990929e+00 ; IOD | TIP3P | ref4
MERZ_Tl1plus_IOD_SPCE                 81   204.38000  0.0000  A  3.33196121e-01  1.13990929e+00 ; IOD | SPC/E | ref4
MERZ_Tl1plus_IOD_TIP4PEW              81   204.38000  0.0000  A  3.33196121e-01  1.13990929e+00 ; IOD | TIP4PEW | ref4
MERZ_Cu1plus_IOD_TIP3P                29    63.54600  0.0000  A  2.16310209e-01  5.82396064e-03 ; IOD | TIP3P | ref4
MERZ_Cu1plus_IOD_SPCE                 29    63.54600  0.0000  A  2.16310209e-01  5.82396064e-03 ; IOD | SPC/E | ref4
MERZ_Cu1plus_IOD_TIP4PEW              29    63.54600  0.0000  A  2.16310209e-01  5.82396064e-03 ; IOD | TIP4PEW | ref4
MERZ_Ag1plus_IOD_TIP3P                47   107.86820  0.0000  A  2.67269615e-01  1.63169222e-01 ; IOD | TIP3P | ref4
MERZ_Ag1plus_IOD_SPCE                 47   107.86820  0.0000  A  2.67269615e-01  1.63169222e-01 ; IOD | SPC/E | ref4
MERZ_Ag1plus_IOD_TIP4PEW              47   107.86820  0.0000  A  2.67269615e-01  1.63169222e-01 ; IOD | TIP4PEW | ref4
; --- ref5 ---
MERZ_Be2plus_HFE_OPC3                  4     9.01218  0.0000  A  1.66598060e-01  8.53536000e-06 ; HFE | OPC3 | ref5
MERZ_Be2plus_HFE_OPC                   4     9.01218  0.0000  A  1.51809142e-01  4.18400000e-07 ; HFE | OPC | ref5
MERZ_Be2plus_HFE_TIP3PFB               4     9.01218  0.0000  A  1.62856286e-01  4.22584000e-06 ; HFE | TIP3P-FB | ref5
MERZ_Be2plus_HFE_TIP4PFB               4     9.01218  0.0000  A  1.49670985e-01  2.51040000e-07 ; HFE | TIP4P-FB | ref5
MERZ_Cu2plus_HFE_OPC3                 29    63.54600  0.0000  A  2.07757581e-01  2.54399752e-03 ; HFE | OPC3 | ref5
MERZ_Cu2plus_HFE_OPC                  29    63.54600  0.0000  A  1.98492234e-01  9.21609680e-04 ; HFE | OPC | ref5
MERZ_Cu2plus_HFE_TIP3PFB              29    63.54600  0.0000  A  2.05441244e-01  1.99769264e-03 ; HFE | TIP3P-FB | ref5
MERZ_Cu2plus_HFE_TIP4PFB              29    63.54600  0.0000  A  1.97244976e-01  7.95713120e-04 ; HFE | TIP4P-FB | ref5
MERZ_Ni2plus_HFE_OPC3                 28    58.69340  0.0000  A  2.10073918e-01  3.21502744e-03 ; HFE | OPC3 | ref5
MERZ_Ni2plus_HFE_OPC                  28    58.69340  0.0000  A  2.01699470e-01  1.32938232e-03 ; HFE | OPC | ref5
MERZ_Ni2plus_HFE_TIP3PFB              28    58.69340  0.0000  A  2.08292120e-01  2.68700664e-03 ; HFE | TIP3P-FB | ref5
MERZ_Ni2plus_HFE_TIP4PFB              28    58.69340  0.0000  A  2.00808571e-01  1.20273264e-03 ; HFE | TIP4P-FB | ref5
MERZ_Pt2plus_HFE_OPC3                 78   195.08400  0.0000  A  2.12924794e-01  4.24537928e-03 ; HFE | OPC3 | ref5
MERZ_Pt2plus_HFE_OPC                  78   195.08400  0.0000  A  2.03837627e-01  1.68209352e-03 ; HFE | OPC | ref5
MERZ_Pt2plus_HFE_TIP3PFB              78   195.08400  0.0000  A  2.09539379e-01  3.04800216e-03 ; HFE | TIP3P-FB | ref5
MERZ_Pt2plus_HFE_TIP4PFB              78   195.08400  0.0000  A  2.02946728e-01  1.52628136e-03 ; HFE | TIP4P-FB | ref5
MERZ_Zn2plus_HFE_OPC3                 30    65.38000  0.0000  A  2.13815692e-01  4.62034936e-03 ; HFE | OPC3 | ref5
MERZ_Zn2plus_HFE_OPC                  30    65.38000  0.0000  A  2.05084885e-01  1.92342664e-03 ; HFE | OPC | ref5
MERZ_Zn2plus_HFE_TIP3PFB              30    65.38000  0.0000  A  2.10073918e-01  3.21502744e-03 ; HFE | TIP3P-FB | ref5
MERZ_Zn2plus_HFE_TIP4PFB              30    65.38000  0.0000  A  2.03481267e-01  1.61816200e-03 ; HFE | TIP4P-FB | ref5
MERZ_Co2plus_HFE_OPC3                 27    58.93319  0.0000  A  2.19695624e-01  7.87449720e-03 ; HFE | OPC3 | ref5
MERZ_Co2plus_HFE_OPC                  27    58.93319  0.0000  A  2.08826660e-01  2.83691936e-03 ; HFE | OPC | ref5
MERZ_Co2plus_HFE_TIP3PFB              27    58.93319  0.0000  A  2.17379287e-01  6.41582928e-03 ; HFE | TIP3P-FB | ref5
MERZ_Co2plus_HFE_TIP4PFB              27    58.93319  0.0000  A  2.07401222e-01  2.45236792e-03 ; HFE | TIP4P-FB | ref5
MERZ_Pd2plus_HFE_OPC3                 46   106.42000  0.0000  A  2.20408343e-01  8.37582408e-03 ; HFE | OPC3 | ref5
MERZ_Pd2plus_HFE_OPC                  46   106.42000  0.0000  A  2.09361199e-01  2.99398672e-03 ; HFE | OPC | ref5
MERZ_Pd2plus_HFE_TIP3PFB              46   106.42000  0.0000  A  2.17379287e-01  6.41582928e-03 ; HFE | TIP3P-FB | ref5
MERZ_Pd2plus_HFE_TIP4PFB              46   106.42000  0.0000  A  2.08113941e-01  2.63859776e-03 ; HFE | TIP4P-FB | ref5
MERZ_Ag2plus_HFE_OPC3                 47   107.86820  0.0000  A  2.28782791e-01  1.65544981e-02 ; HFE | OPC3 | ref5
MERZ_Ag2plus_HFE_OPC                  47   107.86820  0.0000  A  2.14706591e-01  5.02322672e-03 ; HFE | OPC | ref5
MERZ_Ag2plus_HFE_TIP3PFB              47   107.86820  0.0000  A  2.26110095e-01  1.34334851e-02 ; HFE | TIP3P-FB | ref5
MERZ_Ag2plus_HFE_TIP4PFB              47   107.86820  0.0000  A  2.13815692e-01  4.62034936e-03 ; HFE | TIP4P-FB | ref5
MERZ_Cr2plus_HFE_OPC3                 24    51.99610  0.0000  A  2.30030049e-01  1.82019062e-02 ; HFE | OPC3 | ref5
MERZ_Cr2plus_HFE_OPC                  24    51.99610  0.0000  A  2.17201107e-01  6.31378152e-03 ; HFE | OPC | ref5
MERZ_Cr2plus_HFE_TIP3PFB              24    51.99610  0.0000  A  2.27713712e-01  1.52415170e-02 ; HFE | TIP3P-FB | ref5
MERZ_Cr2plus_HFE_TIP4PFB              24    51.99610  0.0000  A  2.17022928e-01  6.21311448e-03 ; HFE | TIP4P-FB | ref5
MERZ_Fe2plus_HFE_OPC3                 26    55.84500  0.0000  A  2.31633667e-01  2.05141938e-02 ; HFE | OPC3 | ref5
MERZ_Fe2plus_HFE_OPC                  26    55.84500  0.0000  A  2.18982905e-01  7.39860904e-03 ; HFE | OPC | ref5
MERZ_Fe2plus_HFE_TIP3PFB              26    55.84500  0.0000  A  2.28782791e-01  1.65544981e-02 ; HFE | TIP3P-FB | ref5
MERZ_Fe2plus_HFE_TIP4PFB              26    55.84500  0.0000  A  2.18092006e-01  6.83807856e-03 ; HFE | TIP4P-FB | ref5
MERZ_Mg2plus_HFE_OPC3                 12    24.30500  0.0000  A  2.32702745e-01  2.21841538e-02 ; HFE | OPC3 | ref5
MERZ_Mg2plus_HFE_OPC                  12    24.30500  0.0000  A  2.20764702e-01  8.63636176e-03 ; HFE | OPC | ref5
MERZ_Mg2plus_HFE_TIP3PFB              12    24.30500  0.0000  A  2.29495510e-01  1.74802081e-02 ; HFE | TIP3P-FB | ref5
MERZ_Mg2plus_HFE_TIP4PFB              12    24.30500  0.0000  A  2.20586523e-01  8.50523520e-03 ; HFE | TIP4P-FB | ref5
MERZ_V2plus_HFE_OPC3                  23    50.94150  0.0000  A  2.33415464e-01  2.33573474e-02 ; HFE | OPC3 | ref5
MERZ_V2plus_HFE_OPC                   23    50.94150  0.0000  A  2.21655601e-01  9.31755880e-03 ; HFE | OPC | ref5
MERZ_V2plus_HFE_TIP3PFB               23    50.94150  0.0000  A  2.30208229e-01  1.84478418e-02 ; HFE | TIP3P-FB | ref5
MERZ_V2plus_HFE_TIP4PFB               23    50.94150  0.0000  A  2.23615578e-01  1.09754688e-02 ; HFE | TIP4P-FB | ref5
MERZ_Mn2plus_HFE_OPC3                 25    54.93804  0.0000  A  2.41077193e-01  3.94048283e-02 ; HFE | OPC3 | ref5
MERZ_Mn2plus_HFE_OPC                  25    54.93804  0.0000  A  2.32524565e-01  2.18984284e-02 ; HFE | OPC | ref5
MERZ_Mn2plus_HFE_TIP3PFB              25    54.93804  0.0000  A  2.38582677e-01  3.34375238e-02 ; HFE | TIP3P-FB | ref5
MERZ_Mn2plus_HFE_TIP4PFB              25    54.93804  0.0000  A  2.31633667e-01  2.05141938e-02 ; HFE | TIP4P-FB | ref5
MERZ_Hg2plus_HFE_OPC3                 80   200.59200  0.0000  A  2.41077193e-01  3.94048283e-02 ; HFE | OPC3 | ref5
MERZ_Hg2plus_HFE_OPC                  80   200.59200  0.0000  A  2.32524565e-01  2.18984284e-02 ; HFE | OPC | ref5
MERZ_Hg2plus_HFE_TIP3PFB              80   200.59200  0.0000  A  2.38582677e-01  3.34375238e-02 ; HFE | TIP3P-FB | ref5
MERZ_Hg2plus_HFE_TIP4PFB              80   200.59200  0.0000  A  2.31633667e-01  2.05141938e-02 ; HFE | TIP4P-FB | ref5
MERZ_Cd2plus_HFE_OPC3                 48   112.41400  0.0000  A  2.41789912e-01  4.12549931e-02 ; HFE | OPC3 | ref5
MERZ_Cd2plus_HFE_OPC                  48   112.41400  0.0000  A  2.33237284e-01  2.30594884e-02 ; HFE | OPC | ref5
MERZ_Cd2plus_HFE_TIP3PFB              48   112.41400  0.0000  A  2.39117216e-01  3.46516788e-02 ; HFE | TIP3P-FB | ref5
MERZ_Cd2plus_HFE_TIP4PFB              48   112.41400  0.0000  A  2.31990026e-01  2.10591180e-02 ; HFE | TIP4P-FB | ref5
MERZ_Yb2plus_HFE_OPC3                 70   173.04500  0.0000  A  2.73327727e-01  2.11920981e-01 ; HFE | OPC3 | ref5
MERZ_Yb2plus_HFE_OPC                  70   173.04500  0.0000  A  2.65309638e-01  1.49216293e-01 ; HFE | OPC | ref5
MERZ_Yb2plus_HFE_TIP3PFB              70   173.04500  0.0000  A  2.70833210e-01  1.90799019e-01 ; HFE | TIP3P-FB | ref5
MERZ_Yb2plus_HFE_TIP4PFB              70   173.04500  0.0000  A  2.64596919e-01  1.44356201e-01 ; HFE | TIP4P-FB | ref5
MERZ_Ca2plus_HFE_OPC3                 20    40.07800  0.0000  A  2.74574985e-01  2.23042764e-01 ; HFE | OPC3 | ref5
MERZ_Ca2plus_HFE_OPC                  20    40.07800  0.0000  A  2.66022357e-01  1.54189772e-01 ; HFE | OPC | ref5
MERZ_Ca2plus_HFE_TIP3PFB              20    40.07800  0.0000  A  2.71724109e-01  1.98172064e-01 ; HFE | TIP3P-FB | ref5
MERZ_Ca2plus_HFE_TIP4PFB              20    40.07800  0.0000  A  2.65131459e-01  1.47990674e-01 ; HFE | TIP4P-FB | ref5
MERZ_Sn2plus_HFE_OPC3                 50   118.71000  0.0000  A  2.77247681e-01  2.48150739e-01 ; HFE | OPC3 | ref5
MERZ_Sn2plus_HFE_OPC                  50   118.71000  0.0000  A  2.68338694e-01  1.71148570e-01 ; HFE | OPC | ref5
MERZ_Sn2plus_HFE_TIP3PFB              50   118.71000  0.0000  A  2.74396805e-01  2.21430878e-01 ; HFE | TIP3P-FB | ref5
MERZ_Sn2plus_HFE_TIP4PFB              50   118.71000  0.0000  A  2.67269615e-01  1.63169222e-01 ; HFE | TIP4P-FB | ref5
MERZ_Pb2plus_HFE_OPC3                 82   207.20000  0.0000  A  2.89363904e-01  3.84128270e-01 ; HFE | OPC3 | ref5
MERZ_Pb2plus_HFE_OPC                  82   207.20000  0.0000  A  2.80989456e-01  2.86256812e-01 ; HFE | OPC | ref5
MERZ_Pb2plus_HFE_TIP3PFB              82   207.20000  0.0000  A  2.86334848e-01  3.46722641e-01 ; HFE | TIP3P-FB | ref5
MERZ_Pb2plus_HFE_TIP4PFB              82   207.20000  0.0000  A  2.80454916e-01  2.80600713e-01 ; HFE | TIP4P-FB | ref5
MERZ_Eu2plus_HFE_OPC3                 63   151.96400  0.0000  A  2.97738352e-01  4.99105804e-01 ; HFE | OPC3 | ref5
MERZ_Eu2plus_HFE_OPC                  63   151.96400  0.0000  A  2.89542083e-01  3.86398843e-01 ; HFE | OPC | ref5
MERZ_Eu2plus_HFE_TIP3PFB              63   151.96400  0.0000  A  2.94531116e-01  4.53100590e-01 ; HFE | TIP3P-FB | ref5
MERZ_Eu2plus_HFE_TIP4PFB              63   151.96400  0.0000  A  2.88651185e-01  3.75123800e-01 ; HFE | TIP4P-FB | ref5
MERZ_Sr2plus_HFE_OPC3                 38    87.62000  0.0000  A  2.98807430e-01  5.14970025e-01 ; HFE | OPC3 | ref5
MERZ_Sr2plus_HFE_OPC                  38    87.62000  0.0000  A  2.90611162e-01  4.00185207e-01 ; HFE | OPC | ref5
MERZ_Sr2plus_HFE_TIP3PFB              38    87.62000  0.0000  A  2.95600195e-01  4.68168303e-01 ; HFE | TIP3P-FB | ref5
MERZ_Sr2plus_HFE_TIP4PFB              38    87.62000  0.0000  A  2.89720263e-01  3.88677199e-01 ; HFE | TIP4P-FB | ref5
MERZ_Sm2plus_HFE_OPC3                 62   150.36000  0.0000  A  2.99876509e-01  5.31093864e-01 ; HFE | OPC3 | ref5
MERZ_Sm2plus_HFE_OPC                  62   150.36000  0.0000  A  2.91680240e-01  4.14249639e-01 ; HFE | OPC | ref5
MERZ_Sm2plus_HFE_TIP3PFB              62   150.36000  0.0000  A  2.96491093e-01  4.80929754e-01 ; HFE | TIP3P-FB | ref5
MERZ_Sm2plus_HFE_TIP4PFB              62   150.36000  0.0000  A  2.90789342e-01  4.02510005e-01 ; HFE | TIP4P-FB | ref5
MERZ_Ba2plus_HFE_OPC3                 56   137.32700  0.0000  A  3.27850728e-01  1.03137546e+00 ; HFE | OPC3 | ref5
MERZ_Ba2plus_HFE_OPC                  56   137.32700  0.0000  A  3.20188999e-01  8.81532734e-01 ; HFE | OPC | ref5
MERZ_Ba2plus_HFE_TIP3PFB              56   137.32700  0.0000  A  3.24999852e-01  9.74743509e-01 ; HFE | TIP3P-FB | ref5
MERZ_Ba2plus_HFE_TIP4PFB              56   137.32700  0.0000  A  3.19832640e-01  8.74757415e-01 ; HFE | TIP4P-FB | ref5
MERZ_Ra2plus_HFE_OPC3                 88   226.00000  0.0000  A  3.27850728e-01  1.03137546e+00 ; HFE | OPC3 | ref5
MERZ_Ra2plus_HFE_OPC                  88   226.00000  0.0000  A  3.20188999e-01  8.81532734e-01 ; HFE | OPC | ref5
MERZ_Ra2plus_HFE_TIP3PFB              88   226.00000  0.0000  A  3.24999852e-01  9.74743509e-01 ; HFE | TIP3P-FB | ref5
MERZ_Ra2plus_HFE_TIP4PFB              88   226.00000  0.0000  A  3.19832640e-01  8.74757415e-01 ; HFE | TIP4P-FB | ref5
MERZ_Be2plus_IOD_OPC3                  4     9.01218  0.0000  A  2.07044862e-01  2.36358344e-03 ; IOD | OPC3 | ref5
MERZ_Be2plus_IOD_OPC                   4     9.01218  0.0000  A  2.02412189e-01  1.43896128e-03 ; IOD | OPC | ref5
MERZ_Be2plus_IOD_TIP3PFB               4     9.01218  0.0000  A  2.07223042e-01  2.40764096e-03 ; IOD | TIP3P-FB | ref5
MERZ_Be2plus_IOD_TIP4PFB               4     9.01218  0.0000  A  2.04906705e-01  1.88719320e-03 ; IOD | TIP4P-FB | ref5
MERZ_Cu2plus_IOD_OPC3                 29    63.54600  0.0000  A  2.51767978e-01  7.49417997e-02 ; IOD | OPC3 | ref5
MERZ_Cu2plus_IOD_OPC                  29    63.54600  0.0000  A  2.47848023e-01  5.98594002e-02 ; IOD | OPC | ref5
MERZ_Cu2plus_IOD_TIP3PFB              29    63.54600  0.0000  A  2.51767978e-01  7.49417997e-02 ; IOD | TIP3P-FB | ref5
MERZ_Cu2plus_IOD_TIP4PFB              29    63.54600  0.0000  A  2.49451641e-01  6.57201382e-02 ; IOD | TIP4P-FB | ref5
MERZ_Ni2plus_IOD_OPC3                 28    58.69340  0.0000  A  2.44640788e-01  4.93449663e-02 ; IOD | OPC3 | ref5
MERZ_Ni2plus_IOD_OPC                  28    58.69340  0.0000  A  2.39651755e-01  3.59004773e-02 ; IOD | OPC | ref5
MERZ_Ni2plus_IOD_TIP3PFB              28    58.69340  0.0000  A  2.44640788e-01  4.93449663e-02 ; IOD | TIP3P-FB | ref5
MERZ_Ni2plus_IOD_TIP4PFB              28    58.69340  0.0000  A  2.41968092e-01  4.17279943e-02 ; IOD | TIP4P-FB | ref5
MERZ_Zn2plus_IOD_OPC3                 30    65.38000  0.0000  A  2.49451641e-01  6.57201382e-02 ; IOD | OPC3 | ref5
MERZ_Zn2plus_IOD_OPC                  30    65.38000  0.0000  A  2.44640788e-01  4.93449663e-02 ; IOD | OPC | ref5
MERZ_Zn2plus_IOD_TIP3PFB              30    65.38000  0.0000  A  2.49451641e-01  6.57201382e-02 ; IOD | TIP3P-FB | ref5
MERZ_Zn2plus_IOD_TIP4PFB              30    65.38000  0.0000  A  2.46422585e-01  5.49931153e-02 ; IOD | TIP4P-FB | ref5
MERZ_Co2plus_IOD_OPC3                 27    58.93319  0.0000  A  2.50520720e-01  6.98627584e-02 ; IOD | OPC3 | ref5
MERZ_Co2plus_IOD_OPC                  27    58.93319  0.0000  A  2.46244406e-01  5.44068950e-02 ; IOD | OPC | ref5
MERZ_Co2plus_IOD_TIP3PFB              27    58.93319  0.0000  A  2.50520720e-01  6.98627584e-02 ; IOD | TIP3P-FB | ref5
MERZ_Co2plus_IOD_TIP4PFB              27    58.93319  0.0000  A  2.48026203e-01  6.04900963e-02 ; IOD | TIP4P-FB | ref5
MERZ_Cr2plus_IOD_OPC3                 24    51.99610  0.0000  A  2.47848023e-01  5.98594002e-02 ; IOD | OPC3 | ref5
MERZ_Cr2plus_IOD_OPC                  24    51.99610  0.0000  A  2.43037170e-01  4.46557902e-02 ; IOD | OPC | ref5
MERZ_Cr2plus_IOD_TIP3PFB              24    51.99610  0.0000  A  2.47848023e-01  5.98594002e-02 ; IOD | TIP3P-FB | ref5
MERZ_Cr2plus_IOD_TIP4PFB              24    51.99610  0.0000  A  2.44997147e-01  5.04369903e-02 ; IOD | TIP4P-FB | ref5
MERZ_Fe2plus_IOD_OPC3                 26    55.84500  0.0000  A  2.51767978e-01  5.98594002e-02 ; IOD | OPC3 | ref5 | source Table 3 value preserved
MERZ_Fe2plus_IOD_OPC                  26    55.84500  0.0000  A  2.47848023e-01  5.98594002e-02 ; IOD | OPC | ref5
MERZ_Fe2plus_IOD_TIP3PFB              26    55.84500  0.0000  A  2.51767978e-01  7.49417997e-02 ; IOD | TIP3P-FB | ref5
MERZ_Fe2plus_IOD_TIP4PFB              26    55.84500  0.0000  A  2.49451641e-01  6.57201382e-02 ; IOD | TIP4P-FB | ref5
MERZ_Mg2plus_IOD_OPC3                 12    24.30500  0.0000  A  2.49451641e-01  6.57201382e-02 ; IOD | OPC3 | ref5
MERZ_Mg2plus_IOD_OPC                  12    24.30500  0.0000  A  2.44640788e-01  4.93449663e-02 ; IOD | OPC | ref5
MERZ_Mg2plus_IOD_TIP3PFB              12    24.30500  0.0000  A  2.49451641e-01  6.57201382e-02 ; IOD | TIP3P-FB | ref5
MERZ_Mg2plus_IOD_TIP4PFB              12    24.30500  0.0000  A  2.46422585e-01  5.49931153e-02 ; IOD | TIP4P-FB | ref5
MERZ_V2plus_IOD_OPC3                  23    50.94150  0.0000  A  2.63706021e-01  1.38439020e-01 ; IOD | OPC3 | ref5
MERZ_V2plus_IOD_OPC                   23    50.94150  0.0000  A  2.59429707e-01  1.12412197e-01 ; IOD | OPC | ref5
MERZ_V2plus_IOD_TIP3PFB               23    50.94150  0.0000  A  2.63706021e-01  1.38439020e-01 ; IOD | TIP3P-FB | ref5
MERZ_V2plus_IOD_TIP4PFB               23    50.94150  0.0000  A  2.61033324e-01  1.21719547e-01 ; IOD | TIP4P-FB | ref5
MERZ_Mn2plus_IOD_OPC3                 25    54.93804  0.0000  A  2.60498785e-01  1.18557782e-01 ; IOD | OPC3 | ref5
MERZ_Mn2plus_IOD_OPC                  25    54.93804  0.0000  A  2.57291550e-01  1.00818292e-01 ; IOD | OPC | ref5
MERZ_Mn2plus_IOD_TIP3PFB              25    54.93804  0.0000  A  2.60498785e-01  1.18557782e-01 ; IOD | TIP3P-FB | ref5
MERZ_Mn2plus_IOD_TIP4PFB              25    54.93804  0.0000  A  2.59964246e-01  1.15455472e-01 ; IOD | TIP4P-FB | ref5
MERZ_Hg2plus_IOD_OPC3                 80   200.59200  0.0000  A  2.82236714e-01  2.99730338e-01 ; IOD | OPC3 | ref5
MERZ_Hg2plus_IOD_OPC                  80   200.59200  0.0000  A  2.78851299e-01  2.64057721e-01 ; IOD | OPC | ref5
MERZ_Hg2plus_IOD_TIP3PFB              80   200.59200  0.0000  A  2.82236714e-01  2.99730338e-01 ; IOD | TIP3P-FB | ref5
MERZ_Hg2plus_IOD_TIP4PFB              80   200.59200  0.0000  A  2.80098557e-01  2.76869422e-01 ; IOD | TIP4P-FB | ref5
MERZ_Cd2plus_IOD_OPC3                 48   112.41400  0.0000  A  2.71902289e-01  1.99669350e-01 ; IOD | OPC3 | ref5
MERZ_Cd2plus_IOD_OPC                  48   112.41400  0.0000  A  2.68338694e-01  1.71148570e-01 ; IOD | OPC | ref5
MERZ_Cd2plus_IOD_TIP3PFB              48   112.41400  0.0000  A  2.70833210e-01  1.90799019e-01 ; IOD | TIP3P-FB | ref5
MERZ_Cd2plus_IOD_TIP4PFB              48   112.41400  0.0000  A  2.69229593e-01  1.77999661e-01 ; IOD | TIP4P-FB | ref5
MERZ_Ca2plus_IOD_OPC3                 20    40.07800  0.0000  A  2.88116645e-01  3.68452287e-01 ; IOD | OPC3 | ref5
MERZ_Ca2plus_IOD_OPC                  20    40.07800  0.0000  A  2.83305792e-01  3.11586915e-01 ; IOD | OPC | ref5
MERZ_Ca2plus_IOD_TIP3PFB              20    40.07800  0.0000  A  2.88116645e-01  3.68452287e-01 ; IOD | TIP3P-FB | ref5
MERZ_Ca2plus_IOD_TIP4PFB              20    40.07800  0.0000  A  2.85087590e-01  3.31979187e-01 ; IOD | TIP4P-FB | ref5
MERZ_Sn2plus_IOD_OPC3                 50   118.71000  0.0000  A  3.11101832e-01  7.15154970e-01 ; IOD | OPC3 | ref5
MERZ_Sn2plus_IOD_OPC                  50   118.71000  0.0000  A  3.05578260e-01  6.21331113e-01 ; IOD | OPC | ref5
MERZ_Sn2plus_IOD_TIP3PFB              50   118.71000  0.0000  A  3.11101832e-01  7.15154970e-01 ; IOD | TIP3P-FB | ref5
MERZ_Sn2plus_IOD_TIP4PFB              50   118.71000  0.0000  A  3.08429136e-01  6.69006956e-01 ; IOD | TIP4P-FB | ref5
MERZ_Sr2plus_IOD_OPC3                 38    87.62000  0.0000  A  3.13952708e-01  7.65843544e-01 ; IOD | OPC3 | ref5
MERZ_Sr2plus_IOD_OPC                  38    87.62000  0.0000  A  3.08429136e-01  6.69006956e-01 ; IOD | OPC | ref5
MERZ_Sr2plus_IOD_TIP3PFB              38    87.62000  0.0000  A  3.13952708e-01  7.65843544e-01 ; IOD | TIP3P-FB | ref5
MERZ_Sr2plus_IOD_TIP4PFB              38    87.62000  0.0000  A  3.11101832e-01  7.15154970e-01 ; IOD | TIP4P-FB | ref5
MERZ_Ba2plus_IOD_OPC3                 56   137.32700  0.0000  A  3.41748748e-01  1.31835099e+00 ; IOD | OPC3 | ref5
MERZ_Ba2plus_IOD_OPC                  56   137.32700  0.0000  A  3.35512457e-01  1.18774325e+00 ; IOD | OPC | ref5
MERZ_Ba2plus_IOD_TIP3PFB              56   137.32700  0.0000  A  3.41748748e-01  1.31835099e+00 ; IOD | TIP3P-FB | ref5
MERZ_Ba2plus_IOD_TIP4PFB              56   137.32700  0.0000  A  3.38541513e-01  1.25088989e+00 ; IOD | TIP4P-FB | ref5
MERZ_Be2plus_CM_OPC3                   4     9.01218  0.0000  A  1.73012531e-01  2.59826400e-05 ; CM | OPC3 | ref5
MERZ_Be2plus_CM_OPC                    4     9.01218  0.0000  A  1.64103544e-01  5.35552000e-06 ; CM | OPC | ref5
MERZ_Be2plus_CM_TIP3PFB                4     9.01218  0.0000  A  1.71587093e-01  2.04597600e-05 ; CM | TIP3P-FB | ref5
MERZ_Be2plus_CM_TIP4PFB                4     9.01218  0.0000  A  1.64638083e-01  5.94128000e-06 ; CM | TIP4P-FB | ref5
MERZ_Cu2plus_CM_OPC3                  29    63.54600  0.0000  A  2.18804725e-01  7.28350720e-03 ; CM | OPC3 | ref5
MERZ_Cu2plus_CM_OPC                   29    63.54600  0.0000  A  2.09895738e-01  3.15850160e-03 ; CM | OPC | ref5
MERZ_Cu2plus_CM_TIP3PFB               29    63.54600  0.0000  A  2.17913826e-01  6.73038240e-03 ; CM | TIP3P-FB | ref5
MERZ_Cu2plus_CM_TIP4PFB               29    63.54600  0.0000  A  2.10430277e-01  3.76430296e-03 ; CM | TIP4P-FB | ref5
MERZ_Ni2plus_CM_OPC3                  28    58.69340  0.0000  A  2.22902859e-01  1.03462789e-02 ; CM | OPC3 | ref5
MERZ_Ni2plus_CM_OPC                   28    58.69340  0.0000  A  2.13281153e-01  4.39211216e-03 ; CM | OPC | ref5
MERZ_Ni2plus_CM_TIP3PFB               28    58.69340  0.0000  A  2.23971938e-01  1.13018208e-02 ; CM | TIP3P-FB | ref5
MERZ_Ni2plus_CM_TIP4PFB               28    58.69340  0.0000  A  2.16132029e-01  5.72994616e-03 ; CM | TIP4P-FB | ref5
MERZ_Pt2plus_CM_OPC3                  78   195.08400  0.0000  A  2.26644634e-01  1.40153540e-02 ; CM | OPC3 | ref5
MERZ_Pt2plus_CM_OPC                   78   195.08400  0.0000  A  2.17201107e-01  6.31378152e-03 ; CM | OPC | ref5
MERZ_Pt2plus_CM_TIP3PFB               78   195.08400  0.0000  A  2.27000993e-01  1.44147168e-02 ; CM | TIP3P-FB | ref5
MERZ_Pt2plus_CM_TIP4PFB               78   195.08400  0.0000  A  2.18982905e-01  7.39860904e-03 ; CM | TIP4P-FB | ref5
MERZ_Zn2plus_CM_OPC3                  30    65.38000  0.0000  A  2.28070072e-01  1.56692892e-02 ; CM | OPC3 | ref5
MERZ_Zn2plus_CM_OPC                   30    65.38000  0.0000  A  2.17201107e-01  6.31378152e-03 ; CM | OPC | ref5
MERZ_Zn2plus_CM_TIP3PFB               30    65.38000  0.0000  A  2.27357353e-01  1.48233681e-02 ; CM | TIP3P-FB | ref5
MERZ_Zn2plus_CM_TIP4PFB               30    65.38000  0.0000  A  2.19873804e-01  7.99738128e-03 ; CM | TIP4P-FB | ref5
MERZ_Co2plus_CM_OPC3                  27    58.93319  0.0000  A  2.32702745e-01  2.21841538e-02 ; CM | OPC3 | ref5
MERZ_Co2plus_CM_OPC                   27    58.93319  0.0000  A  2.25041016e-01  1.23295367e-02 ; CM | OPC | ref5
MERZ_Co2plus_CM_TIP3PFB               27    58.93319  0.0000  A  2.32346386e-01  2.16157155e-02 ; CM | TIP3P-FB | ref5
MERZ_Co2plus_CM_TIP4PFB               27    58.93319  0.0000  A  2.27535533e-01  1.50312292e-02 ; CM | TIP4P-FB | ref5
MERZ_Pd2plus_CM_OPC3                  46   106.42000  0.0000  A  2.33237284e-01  2.30594884e-02 ; CM | OPC3 | ref5
MERZ_Pd2plus_CM_OPC                   46   106.42000  0.0000  A  2.26110095e-01  1.34334851e-02 ; CM | OPC | ref5
MERZ_Pd2plus_CM_TIP3PFB               46   106.42000  0.0000  A  2.33059105e-01  2.27646419e-02 ; CM | TIP3P-FB | ref5
MERZ_Pd2plus_CM_TIP4PFB               46   106.42000  0.0000  A  2.28426431e-01  1.61068938e-02 ; CM | TIP4P-FB | ref5
MERZ_Ag2plus_CM_OPC3                  47   107.86820  0.0000  A  2.38582677e-01  3.34375238e-02 ; CM | OPC3 | ref5
MERZ_Ag2plus_CM_OPC                   47   107.86820  0.0000  A  2.32524565e-01  2.18984284e-02 ; CM | OPC | ref5
MERZ_Ag2plus_CM_TIP3PFB               47   107.86820  0.0000  A  2.38582677e-01  3.34375238e-02 ; CM | TIP3P-FB | ref5
MERZ_Ag2plus_CM_TIP4PFB               47   107.86820  0.0000  A  2.34484543e-01  2.52105665e-02 ; CM | TIP4P-FB | ref5
MERZ_Cr2plus_CM_OPC3                  24    51.99610  0.0000  A  2.40364474e-01  3.76205197e-02 ; CM | OPC3 | ref5
MERZ_Cr2plus_CM_OPC                   24    51.99610  0.0000  A  2.34484543e-01  2.52105665e-02 ; CM | OPC | ref5
MERZ_Cr2plus_CM_TIP3PFB               24    51.99610  0.0000  A  2.40364474e-01  3.76205197e-02 ; CM | TIP3P-FB | ref5
MERZ_Cr2plus_CM_TIP4PFB               24    51.99610  0.0000  A  2.36444520e-01  2.89142851e-02 ; CM | TIP4P-FB | ref5
MERZ_Fe2plus_CM_OPC3                  26    55.84500  0.0000  A  2.41611732e-01  4.07861759e-02 ; CM | OPC3 | ref5
MERZ_Fe2plus_CM_OPC                   26    55.84500  0.0000  A  2.35731801e-01  2.75202182e-02 ; CM | OPC | ref5
MERZ_Fe2plus_CM_TIP3PFB               26    55.84500  0.0000  A  2.41611732e-01  4.07861759e-02 ; CM | TIP3P-FB | ref5
MERZ_Fe2plus_CM_TIP4PFB               26    55.84500  0.0000  A  2.37691778e-01  3.14891187e-02 ; CM | TIP4P-FB | ref5
MERZ_Mg2plus_CM_OPC3                  12    24.30500  0.0000  A  2.42858991e-01  4.41570155e-02 ; CM | OPC3 | ref5
MERZ_Mg2plus_CM_OPC                   12    24.30500  0.0000  A  2.36979059e-01  2.99963512e-02 ; CM | OPC | ref5
MERZ_Mg2plus_CM_TIP3PFB               12    24.30500  0.0000  A  2.42858991e-01  4.41570155e-02 ; CM | TIP3P-FB | ref5
MERZ_Mg2plus_CM_TIP4PFB               12    24.30500  0.0000  A  2.39117216e-01  3.46516788e-02 ; CM | TIP4P-FB | ref5
MERZ_V2plus_CM_OPC3                   23    50.94150  0.0000  A  2.43393530e-01  4.56665190e-02 ; CM | OPC3 | ref5
MERZ_V2plus_CM_OPC                    23    50.94150  0.0000  A  2.37691778e-01  3.14891187e-02 ; CM | OPC | ref5
MERZ_V2plus_CM_TIP3PFB                23    50.94150  0.0000  A  2.43393530e-01  4.56665190e-02 ; CM | TIP3P-FB | ref5
MERZ_V2plus_CM_TIP4PFB                23    50.94150  0.0000  A  2.39651755e-01  3.59004773e-02 ; CM | TIP4P-FB | ref5
MERZ_Mn2plus_CM_OPC3                  25    54.93804  0.0000  A  2.51233439e-01  7.27321456e-02 ; CM | OPC3 | ref5
MERZ_Mn2plus_CM_OPC                   25    54.93804  0.0000  A  2.46066226e-01  5.38254864e-02 ; CM | OPC | ref5
MERZ_Mn2plus_CM_TIP3PFB               25    54.93804  0.0000  A  2.51411618e-01  7.34631741e-02 ; CM | TIP3P-FB | ref5
MERZ_Mn2plus_CM_TIP4PFB               25    54.93804  0.0000  A  2.48382563e-01  6.17667602e-02 ; CM | TIP4P-FB | ref5
MERZ_Hg2plus_CM_OPC3                  80   200.59200  0.0000  A  2.51233439e-01  7.27321456e-02 ; CM | OPC3 | ref5
MERZ_Hg2plus_CM_OPC                   80   200.59200  0.0000  A  2.46066226e-01  5.38254864e-02 ; CM | OPC | ref5
MERZ_Hg2plus_CM_TIP3PFB               80   200.59200  0.0000  A  2.51411618e-01  7.34631741e-02 ; CM | TIP3P-FB | ref5
MERZ_Hg2plus_CM_TIP4PFB               80   200.59200  0.0000  A  2.48382563e-01  6.17667602e-02 ; CM | TIP4P-FB | ref5
MERZ_Cd2plus_CM_OPC3                  48   112.41400  0.0000  A  2.51767978e-01  7.49417997e-02 ; CM | OPC3 | ref5
MERZ_Cd2plus_CM_OPC                   48   112.41400  0.0000  A  2.47491664e-01  5.86130702e-02 ; CM | OPC | ref5
MERZ_Cd2plus_CM_TIP3PFB               48   112.41400  0.0000  A  2.52124337e-01  7.64426842e-02 ; CM | TIP3P-FB | ref5
MERZ_Cd2plus_CM_TIP4PFB               48   112.41400  0.0000  A  2.49095282e-01  6.43815929e-02 ; CM | TIP4P-FB | ref5
MERZ_Yb2plus_CM_OPC3                  70   173.04500  0.0000  A  2.89007544e-01  3.79610471e-01 ; CM | OPC3 | ref5
MERZ_Yb2plus_CM_OPC                   70   173.04500  0.0000  A  2.85443949e-01  3.36152225e-01 ; CM | OPC | ref5
MERZ_Yb2plus_CM_TIP3PFB               70   173.04500  0.0000  A  2.90254802e-01  3.95558749e-01 ; CM | TIP3P-FB | ref5
MERZ_Yb2plus_CM_TIP4PFB               70   173.04500  0.0000  A  2.88829364e-01  3.77363244e-01 ; CM | TIP4P-FB | ref5
MERZ_Ca2plus_CM_OPC3                  20    40.07800  0.0000  A  2.90076623e-01  3.93257172e-01 ; CM | OPC3 | ref5
MERZ_Ca2plus_CM_OPC                   20    40.07800  0.0000  A  2.86513028e-01  3.48860288e-01 ; CM | OPC | ref5
MERZ_Ca2plus_CM_TIP3PFB               20    40.07800  0.0000  A  2.91323881e-01  4.09530673e-01 ; CM | TIP3P-FB | ref5
MERZ_Ca2plus_CM_TIP4PFB               20    40.07800  0.0000  A  2.89898443e-01  3.90963294e-01 ; CM | TIP4P-FB | ref5
MERZ_Sn2plus_CM_OPC3                  50   118.71000  0.0000  A  2.92392959e-01  4.23779578e-01 ; CM | OPC3 | ref5
MERZ_Sn2plus_CM_OPC                   50   118.71000  0.0000  A  2.89542083e-01  3.86398843e-01 ; CM | OPC | ref5
MERZ_Sn2plus_CM_TIP3PFB               50   118.71000  0.0000  A  2.94352936e-01  4.50615545e-01 ; CM | TIP3P-FB | ref5
MERZ_Sn2plus_CM_TIP4PFB               50   118.71000  0.0000  A  2.93105678e-01  4.33431815e-01 ; CM | TIP4P-FB | ref5
MERZ_Pb2plus_CM_OPC3                  82   207.20000  0.0000  A  3.07003698e-01  6.44964102e-01 ; CM | OPC3 | ref5
MERZ_Pb2plus_CM_OPC                   82   207.20000  0.0000  A  3.04152822e-01  5.98118155e-01 ; CM | OPC | ref5
MERZ_Pb2plus_CM_TIP3PFB               82   207.20000  0.0000  A  3.08250956e-01  6.65979539e-01 ; CM | TIP3P-FB | ref5
MERZ_Pb2plus_CM_TIP4PFB               82   207.20000  0.0000  A  3.07894597e-01  6.59943533e-01 ; CM | TIP4P-FB | ref5
MERZ_Eu2plus_CM_OPC3                  63   151.96400  0.0000  A  3.15734506e-01  7.98250507e-01 ; CM | OPC3 | ref5
MERZ_Eu2plus_CM_OPC                   63   151.96400  0.0000  A  3.12349091e-01  7.37150467e-01 ; CM | OPC | ref5
MERZ_Eu2plus_CM_TIP3PFB               63   151.96400  0.0000  A  3.17516303e-01  8.31187541e-01 ; CM | TIP3P-FB | ref5
MERZ_Eu2plus_CM_TIP4PFB               63   151.96400  0.0000  A  3.17516303e-01  8.31187541e-01 ; CM | TIP4P-FB | ref5
MERZ_Sr2plus_CM_OPC3                  38    87.62000  0.0000  A  3.16803584e-01  8.17950662e-01 ; CM | OPC3 | ref5
MERZ_Sr2plus_CM_OPC                   38    87.62000  0.0000  A  3.14665427e-01  7.78741184e-01 ; CM | OPC | ref5
MERZ_Sr2plus_CM_TIP3PFB               38    87.62000  0.0000  A  3.18763561e-01  8.54545641e-01 ; CM | TIP3P-FB | ref5
MERZ_Sr2plus_CM_TIP4PFB               38    87.62000  0.0000  A  3.18763561e-01  8.54545641e-01 ; CM | TIP4P-FB | ref5
MERZ_Sm2plus_CM_OPC3                  62   150.36000  0.0000  A  3.17872663e-01  8.37836377e-01 ; CM | OPC3 | ref5
MERZ_Sm2plus_CM_OPC                   62   150.36000  0.0000  A  3.14665427e-01  7.78741184e-01 ; CM | OPC | ref5
MERZ_Sm2plus_CM_TIP3PFB               62   150.36000  0.0000  A  3.19832640e-01  8.74757415e-01 ; CM | TIP3P-FB | ref5
MERZ_Sm2plus_CM_TIP4PFB               62   150.36000  0.0000  A  3.20010820e-01  8.78142732e-01 ; CM | TIP4P-FB | ref5
MERZ_Ba2plus_CM_OPC3                  56   137.32700  0.0000  A  3.50301376e-01  1.50012571e+00 ; CM | OPC3 | ref5
MERZ_Ba2plus_CM_OPC                   56   137.32700  0.0000  A  3.49232298e-01  1.47731806e+00 ; CM | OPC | ref5
MERZ_Ba2plus_CM_TIP3PFB               56   137.32700  0.0000  A  3.53330432e-01  1.56477780e+00 ; CM | TIP3P-FB | ref5
MERZ_Ba2plus_CM_TIP4PFB               56   137.32700  0.0000  A  3.54934049e-01  1.59899451e+00 ; CM | TIP4P-FB | ref5
MERZ_Ra2plus_CM_OPC3                  88   226.00000  0.0000  A  3.50301376e-01  1.50012571e+00 ; CM | OPC3 | ref5
MERZ_Ra2plus_CM_OPC                   88   226.00000  0.0000  A  3.49232298e-01  1.47731806e+00 ; CM | OPC | ref5
MERZ_Ra2plus_CM_TIP3PFB               88   226.00000  0.0000  A  3.53330432e-01  1.56477780e+00 ; CM | TIP3P-FB | ref5
MERZ_Ra2plus_CM_TIP4PFB               88   226.00000  0.0000  A  3.54934049e-01  1.59899451e+00 ; CM | TIP4P-FB | ref5
; --- ref6 ---
MERZ_Al3plus_HFE_OPC3                 13    26.98154  0.0000  A  1.79070642e-01  6.82410400e-05 ; HFE | OPC3 | ref6
MERZ_Al3plus_HFE_OPC                  13    26.98154  0.0000  A  1.64638083e-01  5.94128000e-06 ; HFE | OPC | ref6
MERZ_Al3plus_HFE_TIP3PFB              13    26.98154  0.0000  A  1.73190711e-01  2.67357600e-05 ; HFE | TIP3P-FB | ref6
MERZ_Al3plus_HFE_TIP4PFB              13    26.98154  0.0000  A  1.63212645e-01  4.51872000e-06 ; HFE | TIP4P-FB | ref6
MERZ_Fe3plus_HFE_OPC3                 26    55.84500  0.0000  A  1.99739493e-01  1.06478616e-03 ; HFE | OPC3 | ref6
MERZ_Fe3plus_HFE_OPC                  26    55.84500  0.0000  A  1.82277878e-01  1.10248400e-04 ; HFE | OPC | ref6
MERZ_Fe3plus_HFE_TIP3PFB              26    55.84500  0.0000  A  1.95819538e-01  6.70611520e-04 ; HFE | TIP3P-FB | ref6
MERZ_Fe3plus_HFE_TIP4PFB              26    55.84500  0.0000  A  1.80496080e-01  8.46841600e-05 ; HFE | TIP4P-FB | ref6
MERZ_Cr3plus_HFE_OPC3                 24    51.99610  0.0000  A  2.16844748e-01  6.11382816e-03 ; HFE | OPC3 | ref6
MERZ_Cr3plus_HFE_OPC                  24    51.99610  0.0000  A  2.04015806e-01  1.71485424e-03 ; HFE | OPC | ref6
MERZ_Cr3plus_HFE_TIP3PFB              24    51.99610  0.0000  A  2.13281153e-01  4.39211216e-03 ; HFE | TIP3P-FB | ref6
MERZ_Cr3plus_HFE_TIP4PFB              24    51.99610  0.0000  A  2.03124908e-01  1.55636432e-03 ; HFE | TIP4P-FB | ref6
MERZ_In3plus_HFE_OPC3                 49   114.81800  0.0000  A  2.21121062e-01  8.90363568e-03 ; HFE | OPC3 | ref6
MERZ_In3plus_HFE_OPC                  49   114.81800  0.0000  A  2.06153963e-01  2.15375584e-03 ; HFE | OPC | ref6
MERZ_In3plus_HFE_TIP3PFB              49   114.81800  0.0000  A  2.15775670e-01  5.54580832e-03 ; HFE | TIP3P-FB | ref6
MERZ_In3plus_HFE_TIP4PFB              49   114.81800  0.0000  A  2.04550346e-01  1.81652544e-03 ; HFE | TIP4P-FB | ref6
MERZ_Tl3plus_HFE_OPC3                 81   204.38000  0.0000  A  2.23259219e-01  1.06570246e-02 ; HFE | OPC3 | ref6
MERZ_Tl3plus_HFE_OPC                  81   204.38000  0.0000  A  2.06153963e-01  2.15375584e-03 ; HFE | OPC | ref6
MERZ_Tl3plus_HFE_TIP3PFB              81   204.38000  0.0000  A  2.15775670e-01  5.54580832e-03 ; HFE | TIP3P-FB | ref6
MERZ_Tl3plus_HFE_TIP4PFB              81   204.38000  0.0000  A  2.05263065e-01  1.96024584e-03 ; HFE | TIP4P-FB | ref6
MERZ_Y3plus_HFE_OPC3                  39    88.90584  0.0000  A  2.59786066e-01  1.14434534e-01 ; HFE | OPC3 | ref6
MERZ_Y3plus_HFE_OPC                   39    88.90584  0.0000  A  2.49273461e-01  6.50482296e-02 ; HFE | OPC | ref6
MERZ_Y3plus_HFE_TIP3PFB               39    88.90584  0.0000  A  2.54975213e-01  8.92727110e-02 ; HFE | TIP3P-FB | ref6
MERZ_Y3plus_HFE_TIP4PFB               39    88.90584  0.0000  A  2.47848023e-01  5.98594002e-02 ; HFE | TIP4P-FB | ref6
MERZ_La3plus_HFE_OPC3                 57   138.90547  0.0000  A  2.93283858e-01  4.35863890e-01 ; HFE | OPC3 | ref6
MERZ_La3plus_HFE_OPC                  57   138.90547  0.0000  A  2.80989456e-01  2.86256812e-01 ; HFE | OPC | ref6
MERZ_La3plus_HFE_TIP3PFB              57   138.90547  0.0000  A  2.89363904e-01  3.84128270e-01 ; HFE | TIP3P-FB | ref6
MERZ_La3plus_HFE_TIP4PFB              57   138.90547  0.0000  A  2.80454916e-01  2.80600713e-01 ; HFE | TIP4P-FB | ref6
MERZ_Ce3plus_HFE_OPC3                 58   140.11600  0.0000  A  2.86869387e-01  3.53159181e-01 ; HFE | OPC3 | ref6
MERZ_Ce3plus_HFE_OPC                  58   140.11600  0.0000  A  2.74396805e-01  2.21430878e-01 ; HFE | OPC | ref6
MERZ_Ce3plus_HFE_TIP3PFB              58   140.11600  0.0000  A  2.83127613e-01  3.09591105e-01 ; HFE | TIP3P-FB | ref6
MERZ_Ce3plus_HFE_TIP4PFB              58   140.11600  0.0000  A  2.73862266e-01  2.16641370e-01 ; HFE | TIP4P-FB | ref6
MERZ_Pr3plus_HFE_OPC3                 59   140.90766  0.0000  A  2.82058534e-01  2.97781891e-01 ; HFE | OPC3 | ref6
MERZ_Pr3plus_HFE_OPC                  59   140.90766  0.0000  A  2.68873233e-01  1.75237133e-01 ; HFE | OPC | ref6
MERZ_Pr3plus_HFE_TIP3PFB              59   140.90766  0.0000  A  2.78138580e-01  2.56909608e-01 ; HFE | TIP3P-FB | ref6
MERZ_Pr3plus_HFE_TIP4PFB              59   140.90766  0.0000  A  2.68338694e-01  1.71148570e-01 ; HFE | TIP4P-FB | ref6
MERZ_Nd3plus_HFE_OPC3                 60   144.24200  0.0000  A  2.78316760e-01  2.58684879e-01 ; HFE | OPC3 | ref6
MERZ_Nd3plus_HFE_OPC                  60   144.24200  0.0000  A  2.65309638e-01  1.49216293e-01 ; HFE | OPC | ref6
MERZ_Nd3plus_HFE_TIP3PFB              60   144.24200  0.0000  A  2.74396805e-01  2.21430878e-01 ; HFE | TIP3P-FB | ref6
MERZ_Nd3plus_HFE_TIP4PFB              60   144.24200  0.0000  A  2.64596919e-01  1.44356201e-01 ; HFE | TIP4P-FB | ref6
MERZ_Sm3plus_HFE_OPC3                 62   150.36000  0.0000  A  2.72793187e-01  2.07269461e-01 ; HFE | OPC3 | ref6
MERZ_Sm3plus_HFE_OPC                  62   150.36000  0.0000  A  2.59786066e-01  1.14434534e-01 ; HFE | OPC | ref6
MERZ_Sm3plus_HFE_TIP3PFB              62   150.36000  0.0000  A  2.69407772e-01  1.79392054e-01 ; HFE | TIP3P-FB | ref6
MERZ_Sm3plus_HFE_TIP4PFB              62   150.36000  0.0000  A  2.59964246e-01  1.15455472e-01 ; HFE | TIP4P-FB | ref6
MERZ_Eu3plus_HFE_OPC3                 63   151.96400  0.0000  A  2.69764132e-01  1.82199058e-01 ; HFE | OPC3 | ref6
MERZ_Eu3plus_HFE_OPC                  63   151.96400  0.0000  A  2.56222471e-01  9.53611004e-02 ; HFE | OPC | ref6
MERZ_Eu3plus_HFE_TIP3PFB              63   151.96400  0.0000  A  2.65844177e-01  1.52935702e-01 ; HFE | TIP3P-FB | ref6
MERZ_Eu3plus_HFE_TIP4PFB              63   151.96400  0.0000  A  2.54797033e-01  8.84269990e-02 ; HFE | TIP4P-FB | ref6
MERZ_Gd3plus_HFE_OPC3                 64   157.25000  0.0000  A  2.68160514e-01  1.69800402e-01 ; HFE | OPC3 | ref6
MERZ_Gd3plus_HFE_OPC                  64   157.25000  0.0000  A  2.54975213e-01  8.92727110e-02 ; HFE | OPC | ref6
MERZ_Gd3plus_HFE_TIP3PFB              64   157.25000  0.0000  A  2.64596919e-01  1.44356201e-01 ; HFE | TIP3P-FB | ref6
MERZ_Gd3plus_HFE_TIP4PFB              64   157.25000  0.0000  A  2.53193416e-01  8.10806482e-02 ; HFE | TIP4P-FB | ref6
MERZ_Tb3plus_HFE_OPC3                 65   158.92535  0.0000  A  2.63527841e-01  1.37276454e-01 ; HFE | OPC3 | ref6
MERZ_Tb3plus_HFE_OPC                  65   158.92535  0.0000  A  2.53015236e-01  8.02934286e-02 ; HFE | OPC | ref6
MERZ_Tb3plus_HFE_TIP3PFB              65   158.92535  0.0000  A  2.59964246e-01  1.15455472e-01 ; HFE | TIP3P-FB | ref6
MERZ_Tb3plus_HFE_TIP4PFB              65   158.92535  0.0000  A  2.51055259e-01  7.20066400e-02 ; HFE | TIP4P-FB | ref6
MERZ_Dy3plus_HFE_OPC3                 66   162.50000  0.0000  A  2.61389684e-01  1.23860751e-01 ; HFE | OPC3 | ref6
MERZ_Dy3plus_HFE_OPC                  66   162.50000  0.0000  A  2.51055259e-01  7.20066400e-02 ; HFE | OPC | ref6
MERZ_Dy3plus_HFE_TIP3PFB              66   162.50000  0.0000  A  2.57647909e-01  1.02687117e-01 ; HFE | TIP3P-FB | ref6
MERZ_Dy3plus_HFE_TIP4PFB              66   162.50000  0.0000  A  2.49629821e-01  6.63973186e-02 ; HFE | TIP4P-FB | ref6
MERZ_Er3plus_HFE_OPC3                 68   167.25900  0.0000  A  2.55331573e-01  9.09820842e-02 ; HFE | OPC3 | ref6
MERZ_Er3plus_HFE_OPC                  68   167.25900  0.0000  A  2.45888046e-01  5.32488894e-02 ; HFE | OPC | ref6
MERZ_Er3plus_HFE_TIP3PFB              68   167.25900  0.0000  A  2.52124337e-01  7.64426842e-02 ; HFE | TIP3P-FB | ref6
MERZ_Er3plus_HFE_TIP4PFB              68   167.25900  0.0000  A  2.44640788e-01  4.93449663e-02 ; HFE | TIP4P-FB | ref6
MERZ_Tm3plus_HFE_OPC3                 69   168.93422  0.0000  A  2.53549775e-01  8.26723673e-02 ; HFE | OPC3 | ref6
MERZ_Tm3plus_HFE_OPC                  69   168.93422  0.0000  A  2.44462608e-01  4.88058579e-02 ; HFE | OPC | ref6
MERZ_Tm3plus_HFE_TIP3PFB              69   168.93422  0.0000  A  2.51589798e-01  7.41997254e-02 ; HFE | TIP3P-FB | ref6
MERZ_Tm3plus_HFE_TIP4PFB              69   168.93422  0.0000  A  2.43037170e-01  4.46557902e-02 ; HFE | TIP4P-FB | ref6
MERZ_Lu3plus_HFE_OPC3                 71   174.96680  0.0000  A  2.53549775e-01  8.26723673e-02 ; HFE | OPC3 | ref6
MERZ_Lu3plus_HFE_OPC                  71   174.96680  0.0000  A  2.44462608e-01  4.88058579e-02 ; HFE | OPC | ref6
MERZ_Lu3plus_HFE_TIP3PFB              71   174.96680  0.0000  A  2.51589798e-01  7.41997254e-02 ; HFE | TIP3P-FB | ref6
MERZ_Lu3plus_HFE_TIP4PFB              71   174.96680  0.0000  A  2.43037170e-01  4.46557902e-02 ; HFE | TIP4P-FB | ref6
MERZ_Hf4plus_HFE_OPC3                 72   178.49000  0.0000  A  2.02055829e-01  1.38323040e-03 ; HFE | OPC3 | ref6
MERZ_Hf4plus_HFE_OPC                  72   178.49000  0.0000  A  1.82277878e-01  1.10248400e-04 ; HFE | OPC | ref6
MERZ_Hf4plus_HFE_TIP3PFB              72   178.49000  0.0000  A  1.97601336e-01  8.30021920e-04 ; HFE | TIP3P-FB | ref6
MERZ_Hf4plus_HFE_TIP4PFB              72   178.49000  0.0000  A  1.80674260e-01  8.69853600e-05 ; HFE | TIP4P-FB | ref6
MERZ_Zr4plus_HFE_OPC3                 40    91.22400  0.0000  A  2.08292120e-01  2.68700664e-03 ; HFE | OPC3 | ref6
MERZ_Zr4plus_HFE_OPC                  40    91.22400  0.0000  A  1.94572280e-01  5.75760240e-04 ; HFE | OPC | ref6
MERZ_Zr4plus_HFE_TIP3PFB              40    91.22400  0.0000  A  2.04906705e-01  1.88719320e-03 ; HFE | TIP3P-FB | ref6
MERZ_Zr4plus_HFE_TIP4PFB              40    91.22400  0.0000  A  1.93681381e-01  5.15510640e-04 ; HFE | TIP4P-FB | ref6
MERZ_Ce4plus_HFE_OPC3                 58   140.11600  0.0000  A  2.44106249e-01  4.77413646e-02 ; HFE | OPC3 | ref6
MERZ_Ce4plus_HFE_OPC                  58   140.11600  0.0000  A  2.32702745e-01  2.21841538e-02 ; HFE | OPC | ref6
MERZ_Ce4plus_HFE_TIP3PFB              58   140.11600  0.0000  A  2.40899013e-01  3.89526634e-02 ; HFE | TIP3P-FB | ref6
MERZ_Ce4plus_HFE_TIP4PFB              58   140.11600  0.0000  A  2.31811846e-01  2.07851915e-02 ; HFE | TIP4P-FB | ref6
MERZ_U4plus_HFE_OPC3                  92   238.02891  0.0000  A  2.22190140e-01  9.74746480e-03 ; HFE | OPC3 | ref6
MERZ_U4plus_HFE_OPC                   92   238.02891  0.0000  A  2.05797604e-01  2.07446904e-03 ; HFE | OPC | ref6
MERZ_U4plus_HFE_TIP3PFB               92   238.02891  0.0000  A  2.17913826e-01  6.73038240e-03 ; HFE | TIP3P-FB | ref6
MERZ_U4plus_HFE_TIP4PFB               92   238.02891  0.0000  A  2.04550346e-01  1.81652544e-03 ; HFE | TIP4P-FB | ref6
MERZ_Pu4plus_HFE_OPC3                 94   244.00000  0.0000  A  2.33059105e-01  2.27646419e-02 ; HFE | OPC3 | ref6
MERZ_Pu4plus_HFE_OPC                  94   244.00000  0.0000  A  2.17557467e-01  6.51925776e-03 ; HFE | OPC | ref6
MERZ_Pu4plus_HFE_TIP3PFB              94   244.00000  0.0000  A  2.28960971e-01  1.67820658e-02 ; HFE | TIP3P-FB | ref6
MERZ_Pu4plus_HFE_TIP4PFB              94   244.00000  0.0000  A  2.16488389e-01  5.91923032e-03 ; HFE | TIP4P-FB | ref6
MERZ_Th4plus_HFE_OPC3                 90   232.03770  0.0000  A  2.62815122e-01  1.32695309e-01 ; HFE | OPC3 | ref6
MERZ_Th4plus_HFE_OPC                  90   232.03770  0.0000  A  2.48204383e-01  6.11258970e-02 ; HFE | OPC | ref6
MERZ_Th4plus_HFE_TIP3PFB              90   232.03770  0.0000  A  2.59073347e-01  1.10415844e-01 ; HFE | TIP3P-FB | ref6
MERZ_Th4plus_HFE_TIP4PFB              90   232.03770  0.0000  A  2.47313484e-01  5.79973946e-02 ; HFE | TIP4P-FB | ref6
MERZ_Al3plus_IOD_OPC3                 13    26.98154  0.0000  A  2.29317330e-01  1.72448999e-02 ; IOD | OPC3 | ref6
MERZ_Al3plus_IOD_OPC                  13    26.98154  0.0000  A  2.22724680e-01  1.01937721e-02 ; IOD | OPC | ref6
MERZ_Al3plus_IOD_TIP3PFB              13    26.98154  0.0000  A  2.29317330e-01  1.72448999e-02 ; IOD | TIP3P-FB | ref6
MERZ_Al3plus_IOD_TIP4PFB              13    26.98154  0.0000  A  2.25753735e-01  1.30567996e-02 ; IOD | TIP4P-FB | ref6
MERZ_Fe3plus_IOD_OPC3                 26    55.84500  0.0000  A  2.52837056e-01  7.95118992e-02 ; IOD | OPC3 | ref6
MERZ_Fe3plus_IOD_OPC                  26    55.84500  0.0000  A  2.49451641e-01  6.57201382e-02 ; IOD | OPC | ref6
MERZ_Fe3plus_IOD_TIP3PFB              26    55.84500  0.0000  A  2.52837056e-01  7.95118992e-02 ; IOD | TIP3P-FB | ref6
MERZ_Fe3plus_IOD_TIP4PFB              26    55.84500  0.0000  A  2.50164360e-01  6.84605326e-02 ; IOD | TIP4P-FB | ref6
MERZ_Cr3plus_IOD_OPC3                 24    51.99610  0.0000  A  2.43037170e-01  4.46557902e-02 ; IOD | OPC3 | ref6
MERZ_Cr3plus_IOD_OPC                  24    51.99610  0.0000  A  2.38048137e-01  3.22573430e-02 ; IOD | OPC | ref6
MERZ_Cr3plus_IOD_TIP3PFB              24    51.99610  0.0000  A  2.43037170e-01  4.46557902e-02 ; IOD | TIP3P-FB | ref6
MERZ_Cr3plus_IOD_TIP4PFB              24    51.99610  0.0000  A  2.39651755e-01  3.59004773e-02 ; IOD | TIP4P-FB | ref6
MERZ_In3plus_IOD_OPC3                 49   114.81800  0.0000  A  2.58895167e-01  1.09427374e-01 ; IOD | OPC3 | ref6
MERZ_In3plus_IOD_OPC                  49   114.81800  0.0000  A  2.56578831e-01  9.71554506e-02 ; IOD | OPC | ref6
MERZ_In3plus_IOD_TIP3PFB              49   114.81800  0.0000  A  2.57469730e-01  1.01749566e-01 ; IOD | TIP3P-FB | ref6
MERZ_In3plus_IOD_TIP4PFB              49   114.81800  0.0000  A  2.57113370e-01  9.98932510e-02 ; IOD | TIP4P-FB | ref6
MERZ_Tl3plus_IOD_OPC3                 81   204.38000  0.0000  A  2.66556896e-01  1.57994911e-01 ; IOD | OPC3 | ref6
MERZ_Tl3plus_IOD_OPC                  81   204.38000  0.0000  A  2.64240560e-01  1.41968392e-01 ; IOD | OPC | ref6
MERZ_Tl3plus_IOD_TIP3PFB              81   204.38000  0.0000  A  2.66556896e-01  1.57994911e-01 ; IOD | TIP3P-FB | ref6
MERZ_Tl3plus_IOD_TIP4PFB              81   204.38000  0.0000  A  2.65131459e-01  1.47990674e-01 ; IOD | TIP4P-FB | ref6
MERZ_Y3plus_IOD_OPC3                  39    88.90584  0.0000  A  2.85087590e-01  3.31979187e-01 ; IOD | OPC3 | ref6
MERZ_Y3plus_IOD_OPC                   39    88.90584  0.0000  A  2.80633096e-01  2.82478199e-01 ; IOD | OPC | ref6
MERZ_Y3plus_IOD_TIP3PFB               39    88.90584  0.0000  A  2.85087590e-01  3.31979187e-01 ; IOD | TIP3P-FB | ref6
MERZ_Y3plus_IOD_TIP4PFB               39    88.90584  0.0000  A  2.82058534e-01  2.97781891e-01 ; IOD | TIP4P-FB | ref6
MERZ_La3plus_IOD_OPC3                 57   138.90547  0.0000  A  3.08785496e-01  6.75080492e-01 ; IOD | OPC3 | ref6
MERZ_La3plus_IOD_OPC                  57   138.90547  0.0000  A  3.02905564e-01  5.78158969e-01 ; IOD | OPC | ref6
MERZ_La3plus_IOD_TIP3PFB              57   138.90547  0.0000  A  3.08429136e-01  6.69006956e-01 ; IOD | TIP3P-FB | ref6
MERZ_La3plus_IOD_TIP4PFB              57   138.90547  0.0000  A  3.05578260e-01  6.21331113e-01 ; IOD | TIP4P-FB | ref6
MERZ_Ce3plus_IOD_OPC3                 58   140.11600  0.0000  A  3.13239989e-01  7.53034646e-01 ; IOD | OPC3 | ref6
MERZ_Ce3plus_IOD_OPC                  58   140.11600  0.0000  A  3.07360058e-01  6.50936804e-01 ; IOD | OPC | ref6
MERZ_Ce3plus_IOD_TIP3PFB              58   140.11600  0.0000  A  3.12527270e-01  7.40315914e-01 ; IOD | TIP3P-FB | ref6
MERZ_Ce3plus_IOD_TIP4PFB              58   140.11600  0.0000  A  3.09676394e-01  6.90372385e-01 ; IOD | TIP4P-FB | ref6
MERZ_Pr3plus_IOD_OPC3                 59   140.90766  0.0000  A  3.11814551e-01  7.27688853e-01 ; IOD | OPC3 | ref6
MERZ_Pr3plus_IOD_OPC                  59   140.90766  0.0000  A  3.05934620e-01  6.27200344e-01 ; IOD | OPC | ref6
MERZ_Pr3plus_IOD_TIP3PFB              59   140.90766  0.0000  A  3.11101832e-01  7.15154970e-01 ; IOD | TIP3P-FB | ref6
MERZ_Pr3plus_IOD_TIP4PFB              59   140.90766  0.0000  A  3.08429136e-01  6.69006956e-01 ; IOD | TIP4P-FB | ref6
MERZ_Nd3plus_IOD_OPC3                 60   144.24200  0.0000  A  3.01480126e-01  5.55759297e-01 ; IOD | OPC3 | ref6
MERZ_Nd3plus_IOD_OPC                  60   144.24200  0.0000  A  2.96134734e-01  4.75802932e-01 ; IOD | OPC | ref6
MERZ_Nd3plus_IOD_TIP3PFB              60   144.24200  0.0000  A  3.01480126e-01  5.55759297e-01 ; IOD | TIP3P-FB | ref6
MERZ_Nd3plus_IOD_TIP4PFB              60   144.24200  0.0000  A  2.98451071e-01  5.09652956e-01 ; IOD | TIP4P-FB | ref6
MERZ_Sm3plus_IOD_OPC3                 62   150.36000  0.0000  A  2.97025633e-01  4.88675426e-01 ; IOD | OPC3 | ref6
MERZ_Sm3plus_IOD_OPC                  62   150.36000  0.0000  A  2.91858420e-01  4.16620628e-01 ; IOD | OPC | ref6
MERZ_Sm3plus_IOD_TIP3PFB              62   150.36000  0.0000  A  2.97025633e-01  4.88675426e-01 ; IOD | TIP3P-FB | ref6
MERZ_Sm3plus_IOD_TIP4PFB              62   150.36000  0.0000  A  2.93996577e-01  4.45668090e-01 ; IOD | TIP4P-FB | ref6
MERZ_Eu3plus_IOD_OPC3                 63   151.96400  0.0000  A  2.98451071e-01  5.09652956e-01 ; IOD | OPC3 | ref6
MERZ_Eu3plus_IOD_OPC                  63   151.96400  0.0000  A  2.93283858e-01  4.35863890e-01 ; IOD | OPC | ref6
MERZ_Eu3plus_IOD_TIP3PFB              63   151.96400  0.0000  A  2.98451071e-01  5.09652956e-01 ; IOD | TIP3P-FB | ref6
MERZ_Eu3plus_IOD_TIP4PFB              63   151.96400  0.0000  A  2.95422015e-01  4.65638322e-01 ; IOD | TIP4P-FB | ref6
MERZ_Gd3plus_IOD_OPC3                 64   157.25000  0.0000  A  2.89542083e-01  3.86398843e-01 ; IOD | OPC3 | ref6
MERZ_Gd3plus_IOD_OPC                  64   157.25000  0.0000  A  2.85087590e-01  3.31979187e-01 ; IOD | OPC | ref6
MERZ_Gd3plus_IOD_TIP3PFB              64   157.25000  0.0000  A  2.89542083e-01  3.86398843e-01 ; IOD | TIP3P-FB | ref6
MERZ_Gd3plus_IOD_TIP4PFB              64   157.25000  0.0000  A  2.86513028e-01  3.48860288e-01 ; IOD | TIP4P-FB | ref6
MERZ_Tb3plus_IOD_OPC3                 65   158.92535  0.0000  A  2.90967521e-01  4.04842501e-01 ; IOD | OPC3 | ref6
MERZ_Tb3plus_IOD_OPC                  65   158.92535  0.0000  A  2.86513028e-01  3.48860288e-01 ; IOD | OPC | ref6
MERZ_Tb3plus_IOD_TIP3PFB              65   158.92535  0.0000  A  2.90967521e-01  4.04842501e-01 ; IOD | TIP3P-FB | ref6
MERZ_Tb3plus_IOD_TIP4PFB              65   158.92535  0.0000  A  2.88116645e-01  3.68452287e-01 ; IOD | TIP4P-FB | ref6
MERZ_Dy3plus_IOD_OPC3                 66   162.50000  0.0000  A  2.86513028e-01  3.48860288e-01 ; IOD | OPC3 | ref6
MERZ_Dy3plus_IOD_OPC                  66   162.50000  0.0000  A  2.82058534e-01  2.97781891e-01 ; IOD | OPC | ref6
MERZ_Dy3plus_IOD_TIP3PFB              66   162.50000  0.0000  A  2.86513028e-01  3.48860288e-01 ; IOD | TIP3P-FB | ref6
MERZ_Dy3plus_IOD_TIP4PFB              66   162.50000  0.0000  A  2.83662152e-01  3.15602258e-01 ; IOD | TIP4P-FB | ref6
MERZ_Er3plus_IOD_OPC3                 68   167.25900  0.0000  A  2.85087590e-01  3.31979187e-01 ; IOD | OPC3 | ref6
MERZ_Er3plus_IOD_OPC                  68   167.25900  0.0000  A  2.80633096e-01  2.82478199e-01 ; IOD | OPC | ref6
MERZ_Er3plus_IOD_TIP3PFB              68   167.25900  0.0000  A  2.85087590e-01  3.31979187e-01 ; IOD | TIP3P-FB | ref6
MERZ_Er3plus_IOD_TIP4PFB              68   167.25900  0.0000  A  2.82058534e-01  2.97781891e-01 ; IOD | TIP4P-FB | ref6
MERZ_Tm3plus_IOD_OPC3                 69   168.93422  0.0000  A  2.85087590e-01  3.31979187e-01 ; IOD | OPC3 | ref6
MERZ_Tm3plus_IOD_OPC                  69   168.93422  0.0000  A  2.80633096e-01  2.82478199e-01 ; IOD | OPC | ref6
MERZ_Tm3plus_IOD_TIP3PFB              69   168.93422  0.0000  A  2.85087590e-01  3.31979187e-01 ; IOD | TIP3P-FB | ref6
MERZ_Tm3plus_IOD_TIP4PFB              69   168.93422  0.0000  A  2.82058534e-01  2.97781891e-01 ; IOD | TIP4P-FB | ref6
MERZ_Lu3plus_IOD_OPC3                 71   174.96680  0.0000  A  2.82058534e-01  2.97781891e-01 ; IOD | OPC3 | ref6
MERZ_Lu3plus_IOD_OPC                  71   174.96680  0.0000  A  2.77604041e-01  2.51630823e-01 ; IOD | OPC | ref6
MERZ_Lu3plus_IOD_TIP3PFB              71   174.96680  0.0000  A  2.82058534e-01  2.97781891e-01 ; IOD | TIP3P-FB | ref6
MERZ_Lu3plus_IOD_TIP4PFB              71   174.96680  0.0000  A  2.79207658e-01  2.67678889e-01 ; IOD | TIP4P-FB | ref6
MERZ_Hf4plus_IOD_OPC3                 72   178.49000  0.0000  A  2.65309638e-01  1.49216293e-01 ; IOD | OPC3 | ref6
MERZ_Hf4plus_IOD_OPC                  72   178.49000  0.0000  A  2.60320605e-01  1.17517096e-01 ; IOD | OPC | ref6
MERZ_Hf4plus_IOD_TIP3PFB              72   178.49000  0.0000  A  2.65309638e-01  1.49216293e-01 ; IOD | TIP3P-FB | ref6
MERZ_Hf4plus_IOD_TIP4PFB              72   178.49000  0.0000  A  2.61389684e-01  1.23860751e-01 ; IOD | TIP4P-FB | ref6
MERZ_Zr4plus_IOD_OPC3                 40    91.22400  0.0000  A  2.68695053e-01  1.73866915e-01 ; IOD | OPC3 | ref6
MERZ_Zr4plus_IOD_OPC                  40    91.22400  0.0000  A  2.65131459e-01  1.47990674e-01 ; IOD | OPC | ref6
MERZ_Zr4plus_IOD_TIP3PFB              40    91.22400  0.0000  A  2.68695053e-01  1.73866915e-01 ; IOD | TIP3P-FB | ref6
MERZ_Zr4plus_IOD_TIP4PFB              40    91.22400  0.0000  A  2.66378717e-01  1.56719335e-01 ; IOD | TIP4P-FB | ref6
MERZ_Ce4plus_IOD_OPC3                 58   140.11600  0.0000  A  3.04331002e-01  6.00996454e-01 ; IOD | OPC3 | ref6
MERZ_Ce4plus_IOD_OPC                  58   140.11600  0.0000  A  2.99876509e-01  5.31093864e-01 ; IOD | OPC | ref6
MERZ_Ce4plus_IOD_TIP3PFB              58   140.11600  0.0000  A  3.03796463e-01  5.92381682e-01 ; IOD | TIP3P-FB | ref6
MERZ_Ce4plus_IOD_TIP4PFB              58   140.11600  0.0000  A  3.01480126e-01  5.55759297e-01 ; IOD | TIP4P-FB | ref6
MERZ_U4plus_IOD_OPC3                  92   238.02891  0.0000  A  3.04331002e-01  6.00996454e-01 ; IOD | OPC3 | ref6
MERZ_U4plus_IOD_OPC                   92   238.02891  0.0000  A  2.99876509e-01  5.31093864e-01 ; IOD | OPC | ref6
MERZ_U4plus_IOD_TIP3PFB               92   238.02891  0.0000  A  3.03796463e-01  5.92381682e-01 ; IOD | TIP3P-FB | ref6
MERZ_U4plus_IOD_TIP4PFB               92   238.02891  0.0000  A  3.01480126e-01  5.55759297e-01 ; IOD | TIP4P-FB | ref6
MERZ_Pu4plus_IOD_OPC3                 94   244.00000  0.0000  A  2.99698329e-01  5.28388699e-01 ; IOD | OPC3 | ref6
MERZ_Pu4plus_IOD_OPC                  94   244.00000  0.0000  A  2.95422015e-01  4.65638322e-01 ; IOD | OPC | ref6
MERZ_Pu4plus_IOD_TIP3PFB              94   244.00000  0.0000  A  2.99698329e-01  5.28388699e-01 ; IOD | TIP3P-FB | ref6
MERZ_Pu4plus_IOD_TIP4PFB              94   244.00000  0.0000  A  2.97025633e-01  4.88675426e-01 ; IOD | TIP4P-FB | ref6
MERZ_Th4plus_IOD_OPC3                 90   232.03770  0.0000  A  3.06647339e-01  6.39017006e-01 ; IOD | OPC3 | ref6
MERZ_Th4plus_IOD_OPC                  90   232.03770  0.0000  A  3.03618283e-01  5.89523550e-01 ; IOD | OPC | ref6
MERZ_Th4plus_IOD_TIP3PFB              90   232.03770  0.0000  A  3.06112800e-01  6.30144792e-01 ; IOD | TIP3P-FB | ref6
MERZ_Th4plus_IOD_TIP4PFB              90   232.03770  0.0000  A  3.04509182e-01  6.03881448e-01 ; IOD | TIP4P-FB | ref6
; --- ref7 ---
MERZ_Li1plus_HFE_OPC3                  3     6.94000  0.0000  A  2.26288274e-01  1.36251960e-02 ; HFE | OPC3 | ref7
MERZ_Li1plus_HFE_OPC                   3     6.94000  0.0000  A  2.21299242e-01  9.03986672e-03 ; HFE | OPC | ref7
MERZ_Li1plus_HFE_TIP3PFB               3     6.94000  0.0000  A  2.24506477e-01  1.18064112e-02 ; HFE | TIP3P-FB | ref7
MERZ_Li1plus_HFE_TIP4PFB               3     6.94000  0.0000  A  2.20942882e-01  8.76912008e-03 ; HFE | TIP4P-FB | ref7
MERZ_Na1plus_HFE_OPC3                 11    22.98977  0.0000  A  2.61746043e-01  1.26028774e-01 ; HFE | OPC3 | ref7
MERZ_Na1plus_HFE_OPC                  11    22.98977  0.0000  A  2.61389684e-01  1.23860751e-01 ; HFE | OPC | ref7
MERZ_Na1plus_HFE_TIP3PFB              11    22.98977  0.0000  A  2.59964246e-01  1.15455472e-01 ; HFE | TIP3P-FB | ref7
MERZ_Na1plus_HFE_TIP4PFB              11    22.98977  0.0000  A  2.58004269e-01  1.04581130e-01 ; HFE | TIP4P-FB | ref7
MERZ_K1plus_HFE_OPC3                  19    39.09830  0.0000  A  3.03440103e-01  5.86672238e-01 ; HFE | OPC3 | ref7
MERZ_K1plus_HFE_OPC                   19    39.09830  0.0000  A  3.03261924e-01  5.83827661e-01 ; HFE | OPC | ref7
MERZ_K1plus_HFE_TIP3PFB               19    39.09830  0.0000  A  3.03796463e-01  5.92381682e-01 ; HFE | TIP3P-FB | ref7
MERZ_K1plus_HFE_TIP4PFB               19    39.09830  0.0000  A  3.00232868e-01  5.36525617e-01 ; HFE | TIP4P-FB | ref7
MERZ_Rb1plus_HFE_OPC3                 37    85.46780  0.0000  A  3.20723539e-01  8.91730690e-01 ; HFE | OPC3 | ref7
MERZ_Rb1plus_HFE_OPC                  37    85.46780  0.0000  A  3.23930774e-01  9.53762046e-01 ; HFE | OPC | ref7
MERZ_Rb1plus_HFE_TIP3PFB              37    85.46780  0.0000  A  3.21079898e-01  8.98552325e-01 ; HFE | TIP3P-FB | ref7
MERZ_Rb1plus_HFE_TIP4PFB              37    85.46780  0.0000  A  3.19832640e-01  8.74757415e-01 ; HFE | TIP4P-FB | ref7
MERZ_Cs1plus_HFE_OPC3                 55   132.90545  0.0000  A  3.50123196e-01  1.49632371e+00 ; HFE | OPC3 | ref7
MERZ_Cs1plus_HFE_OPC                  55   132.90545  0.0000  A  3.49232298e-01  1.47731806e+00 ; HFE | OPC | ref7
MERZ_Cs1plus_HFE_TIP3PFB              55   132.90545  0.0000  A  3.51014095e-01  1.51533597e+00 ; HFE | TIP3P-FB | ref7
MERZ_Cs1plus_HFE_TIP4PFB              55   132.90545  0.0000  A  3.47450500e-01  1.43933872e+00 ; HFE | TIP4P-FB | ref7
MERZ_Tl1plus_HFE_OPC3                 81   204.38000  0.0000  A  2.99698329e-01  5.28388699e-01 ; HFE | OPC3 | ref7
MERZ_Tl1plus_HFE_OPC                  81   204.38000  0.0000  A  2.95778374e-01  4.70705732e-01 ; HFE | OPC | ref7
MERZ_Tl1plus_HFE_TIP3PFB              81   204.38000  0.0000  A  2.98629250e-01  5.12307872e-01 ; HFE | TIP3P-FB | ref7
MERZ_Tl1plus_HFE_TIP4PFB              81   204.38000  0.0000  A  2.96847453e-01  4.86086158e-01 ; HFE | TIP4P-FB | ref7
MERZ_Cu1plus_HFE_OPC3                 29    63.54600  0.0000  A  2.13993872e-01  4.69863200e-03 ; HFE | OPC3 | ref7
MERZ_Cu1plus_HFE_OPC                  29    63.54600  0.0000  A  2.10252097e-01  3.27243192e-03 ; HFE | OPC | ref7
MERZ_Cu1plus_HFE_TIP3PFB              29    63.54600  0.0000  A  2.12390254e-01  4.03312496e-03 ; HFE | TIP3P-FB | ref7
MERZ_Cu1plus_HFE_TIP4PFB              29    63.54600  0.0000  A  2.08826660e-01  2.83691936e-03 ; HFE | TIP4P-FB | ref7
MERZ_Ag1plus_HFE_OPC3                 47   107.86820  0.0000  A  2.37869958e-01  3.18714108e-02 ; HFE | OPC3 | ref7
MERZ_Ag1plus_HFE_OPC                  47   107.86820  0.0000  A  2.34484543e-01  2.52105665e-02 ; HFE | OPC | ref7
MERZ_Ag1plus_HFE_TIP3PFB              47   107.86820  0.0000  A  2.36622700e-01  2.92714314e-02 ; HFE | TIP3P-FB | ref7
MERZ_Ag1plus_HFE_TIP4PFB              47   107.86820  0.0000  A  2.33950003e-01  2.42697104e-02 ; HFE | TIP4P-FB | ref7
MERZ_Li1plus_IOD_OPC3                  3     6.94000  0.0000  A  2.35375441e-01  2.68437072e-02 ; IOD | OPC3 | ref7
MERZ_Li1plus_IOD_OPC                   3     6.94000  0.0000  A  2.32524565e-01  2.18984284e-02 ; IOD | OPC | ref7
MERZ_Li1plus_IOD_TIP3PFB               3     6.94000  0.0000  A  2.35197262e-01  2.65104516e-02 ; IOD | TIP3P-FB | ref7
MERZ_Li1plus_IOD_TIP4PFB               3     6.94000  0.0000  A  2.32702745e-01  2.21841538e-02 ; IOD | TIP4P-FB | ref7
MERZ_Na1plus_IOD_OPC3                 11    22.98977  0.0000  A  2.61924223e-01  1.27122890e-01 ; IOD | OPC3 | ref7
MERZ_Na1plus_IOD_OPC                  11    22.98977  0.0000  A  2.56578831e-01  9.71554506e-02 ; IOD | OPC | ref7
MERZ_Na1plus_IOD_TIP3PFB              11    22.98977  0.0000  A  2.60142426e-01  1.16482978e-01 ; IOD | TIP3P-FB | ref7
MERZ_Na1plus_IOD_TIP4PFB              11    22.98977  0.0000  A  2.58360628e-01  1.06500498e-01 ; IOD | TIP4P-FB | ref7
MERZ_K1plus_IOD_OPC3                  19    39.09830  0.0000  A  3.10567293e-01  7.05816533e-01 ; IOD | OPC3 | ref7
MERZ_K1plus_IOD_OPC                   19    39.09830  0.0000  A  3.09676394e-01  6.90372385e-01 ; IOD | OPC | ref7
MERZ_K1plus_IOD_TIP3PFB               19    39.09830  0.0000  A  3.10210934e-01  6.99620782e-01 ; IOD | TIP3P-FB | ref7
MERZ_K1plus_IOD_TIP4PFB               19    39.09830  0.0000  A  3.09498215e-01  6.87301747e-01 ; IOD | TIP4P-FB | ref7
MERZ_Rb1plus_IOD_OPC3                 37    85.46780  0.0000  A  3.22505336e-01  9.26018528e-01 ; IOD | OPC3 | ref7
MERZ_Rb1plus_IOD_OPC                  37    85.46780  0.0000  A  3.21079898e-01  8.98552325e-01 ; IOD | OPC | ref7
MERZ_Rb1plus_IOD_TIP3PFB              37    85.46780  0.0000  A  3.22505336e-01  9.26018528e-01 ; IOD | TIP3P-FB | ref7
MERZ_Rb1plus_IOD_TIP4PFB              37    85.46780  0.0000  A  3.22505336e-01  9.26018528e-01 ; IOD | TIP4P-FB | ref7
MERZ_Cs1plus_IOD_OPC3                 55   132.90545  0.0000  A  3.54577690e-01  1.59139273e+00 ; IOD | OPC3 | ref7
MERZ_Cs1plus_IOD_OPC                  55   132.90545  0.0000  A  3.54577690e-01  1.59139273e+00 ; IOD | OPC | ref7
MERZ_Cs1plus_IOD_TIP3PFB              55   132.90545  0.0000  A  3.54221330e-01  1.58378973e+00 ; IOD | TIP3P-FB | ref7
MERZ_Cs1plus_IOD_TIP4PFB              55   132.90545  0.0000  A  3.56359487e-01  1.62938558e+00 ; IOD | TIP4P-FB | ref7
MERZ_Tl1plus_IOD_OPC3                 81   204.38000  0.0000  A  3.32483402e-01  1.12528082e+00 ; IOD | OPC3 | ref7
MERZ_Tl1plus_IOD_OPC                  81   204.38000  0.0000  A  3.28741627e-01  1.04926352e+00 ; IOD | OPC | ref7
MERZ_Tl1plus_IOD_TIP3PFB              81   204.38000  0.0000  A  3.32305222e-01  1.12163070e+00 ; IOD | TIP3P-FB | ref7
MERZ_Tl1plus_IOD_TIP4PFB              81   204.38000  0.0000  A  3.31414323e-01  1.10342343e+00 ; IOD | TIP4P-FB | ref7
MERZ_Cu1plus_IOD_OPC3                 29    63.54600  0.0000  A  2.16132029e-01  5.72994616e-03 ; IOD | OPC3 | ref7
MERZ_Cu1plus_IOD_OPC                  29    63.54600  0.0000  A  2.13993872e-01  4.69863200e-03 ; IOD | OPC | ref7
MERZ_Cu1plus_IOD_TIP3PFB              29    63.54600  0.0000  A  2.16310209e-01  5.82396064e-03 ; IOD | TIP3P-FB | ref7
MERZ_Cu1plus_IOD_TIP4PFB              29    63.54600  0.0000  A  2.15241130e-01  5.27903648e-03 ; IOD | TIP4P-FB | ref7
MERZ_Ag1plus_IOD_OPC3                 47   107.86820  0.0000  A  2.67625975e-01  1.65799828e-01 ; IOD | OPC3 | ref7
MERZ_Ag1plus_IOD_OPC                  47   107.86820  0.0000  A  2.65309638e-01  1.49216293e-01 ; IOD | OPC | ref7
MERZ_Ag1plus_IOD_TIP3PFB              47   107.86820  0.0000  A  2.68160514e-01  1.69800402e-01 ; IOD | TIP3P-FB | ref7
MERZ_Ag1plus_IOD_TIP4PFB              47   107.86820  0.0000  A  2.63884200e-01  1.39608490e-01 ; IOD | TIP4P-FB | ref7
